REMARK SMILES CC(C)n1c(Nc2ccc(N3CCN(CC4CC4)CC3)nc2)nc2c(F)cccc21
REMARK SMILES IDX 7 1 8 2 9 3 10 4 21 5 22 6 6 7 5 9 4 10 30 11 23 12 24 13
REMARK SMILES IDX 29 14 25 15 28 16 27 17 26 18 2 19 1 20 3 21 11 22 12 23
REMARK SMILES IDX 20 24 13 25 19 26 14 27 15 28 16 29 17 30 18 31
REMARK H PARENT 6 8
ROOT
ATOM      1  C   UNL     1      -1.302  -0.672  -0.444  1.00  0.00    +0.060 A 
ATOM      2  C   UNL     1      -0.552  -0.987  -1.593  1.00  0.00    +0.031 A 
ATOM      3  C   UNL     1       0.841  -0.887  -1.585  1.00  0.00    +0.049 A 
ATOM      4  C   UNL     1       1.505  -0.468  -0.415  1.00  0.00    +0.128 A 
ATOM      5  N   UNL     1       0.753  -0.229   0.702  1.00  0.00    -0.237 NA
ATOM      6  C   UNL     1      -0.599  -0.328   0.722  1.00  0.00    +0.139 A 
ENDROOT
BRANCH   1   7
ATOM      7  N   UNL     1      -2.744  -0.724  -0.499  1.00  0.00    -0.324 N 
ATOM      8  H   UNL     1      -3.149  -1.416  -1.164  1.00  0.00    +0.170 HD
BRANCH   7   9
ATOM      9  C   UNL     1      -3.637   0.148   0.222  1.00  0.00    +0.208 A 
ATOM     10  N   UNL     1      -4.993   0.186   0.019  1.00  0.00    -0.307 N 
ATOM     11  C   UNL     1      -5.441   0.985   1.020  1.00  0.00    +0.073 A 
ATOM     12  N   UNL     1      -3.222   0.946   1.244  1.00  0.00    -0.210 NA
ATOM     13  C   UNL     1      -4.367   1.444   1.731  1.00  0.00    +0.126 A 
ATOM     14  C   UNL     1      -6.749   1.276   1.425  1.00  0.00    +0.029 A 
ATOM     15  C   UNL     1      -4.508   2.282   2.835  1.00  0.00    +0.151 A 
ATOM     16  C   UNL     1      -6.921   2.119   2.543  1.00  0.00    +0.005 A 
ATOM     17  C   UNL     1      -5.803   2.625   3.240  1.00  0.00    +0.042 A 
ATOM     18  F   UNL     1      -3.430   2.732   3.507  1.00  0.00    -0.205 F 
BRANCH  10  19
ATOM     19  C   UNL     1      -5.736  -0.486  -1.070  1.00  0.00    +0.084 C 
ATOM     20  C   UNL     1      -6.844   0.387  -1.669  1.00  0.00    +0.031 C 
ATOM     21  C   UNL     1      -6.271  -1.838  -0.587  1.00  0.00    +0.031 C 
ENDBRANCH  10  19
ENDBRANCH   7   9
ENDBRANCH   1   7
BRANCH   4  22
ATOM     22  N   UNL     1       2.934  -0.242  -0.363  1.00  0.00    -0.354 N 
ATOM     23  C   UNL     1       3.896  -0.662  -1.389  1.00  0.00    +0.133 C 
ATOM     24  C   UNL     1       3.558   0.327   0.838  1.00  0.00    +0.133 C 
ATOM     25  C   UNL     1       4.833  -1.726  -0.811  1.00  0.00    +0.106 C 
ATOM     26  C   UNL     1       4.532  -0.690   1.456  1.00  0.00    +0.106 C 
ATOM     27  N   UNL     1       5.442  -1.316   0.471  1.00  0.00    -0.300 NA
BRANCH  27  28
ATOM     28  C   UNL     1       6.803  -0.737   0.382  1.00  0.00    +0.088 C 
BRANCH  28  29
ATOM     29  C   UNL     1       6.862   0.582  -0.407  1.00  0.00    +0.003 C 
ATOM     30  C   UNL     1       8.278   1.023  -0.764  1.00  0.00    +0.005 C 
ATOM     31  C   UNL     1       7.343   0.504  -1.848  1.00  0.00    +0.005 C 
ENDBRANCH  28  29
ENDBRANCH  27  28
ENDBRANCH   4  22
TORSDOF 6
