REMARK SMILES Cc1cccc(Nc2ncc(-c3cn[nH]c3)c(Nc3ccc(C(=O)NC(C)C)cc3)n2)c1
REMARK SMILES IDX 18 1 17 3 8 4 9 5 31 6 10 7 11 8 7 9 6 11 2 12 3 13 32 14
REMARK SMILES IDX 4 15 5 16 1 17 12 18 16 19 13 20 15 21 14 22 19 24 20 25
REMARK SMILES IDX 30 26 21 27 29 28 22 29 23 30 24 31 25 32 26 34 27 35 28 36
REMARK H PARENT 18 2 7 10 15 23 25 33
ROOT
ATOM      1  N   UNL     1       0.030   0.318  -1.554  1.00  0.00    -0.340 N 
ATOM      2  H   UNL     1       0.089   0.497  -2.581  1.00  0.00    +0.168 HD
ENDROOT
BRANCH   1   3
ATOM      3  C   UNL     1       1.263   0.084  -0.859  1.00  0.00    +0.144 A 
ATOM      4  C   UNL     1       3.535   0.703  -0.551  1.00  0.00    +0.229 A 
ATOM      5  N   UNL     1       3.683  -0.272   0.380  1.00  0.00    -0.221 NA
ATOM      6  N   UNL     1       2.331   0.871  -1.154  1.00  0.00    -0.195 NA
ATOM      7  C   UNL     1       2.654  -1.091   0.713  1.00  0.00    +0.127 A 
ATOM      8  C   UNL     1       1.413  -0.957   0.086  1.00  0.00    +0.046 A 
BRANCH   4   9
ATOM      9  N   UNL     1       4.626   1.562  -0.913  1.00  0.00    -0.324 N 
ATOM     10  H   UNL     1       4.379   2.371  -1.527  1.00  0.00    +0.170 HD
BRANCH   9  11
ATOM     11  C   UNL     1       6.015   1.191  -0.838  1.00  0.00    +0.041 A 
ATOM     12  C   UNL     1       7.902   0.141   0.300  1.00  0.00    -0.049 A 
ATOM     13  C   UNL     1       8.741   0.507  -0.761  1.00  0.00    +0.003 A 
ATOM     14  C   UNL     1       6.549   0.510   0.273  1.00  0.00    +0.029 A 
ATOM     15  C   UNL     1       8.227   1.216  -1.849  1.00  0.00    +0.002 A 
ATOM     16  C   UNL     1       6.873   1.557  -1.889  1.00  0.00    +0.026 A 
ATOM     17  C   UNL     1       8.455  -0.592   1.484  1.00  0.00    +0.044 C 
ENDBRANCH   9  11
ENDBRANCH   4   9
BRANCH   8  18
ATOM     18  C   UNL     1       0.344  -1.932   0.391  1.00  0.00    +0.025 A 
ATOM     19  C   UNL     1      -0.496  -2.574  -0.495  1.00  0.00    +0.114 A 
ATOM     20  C   UNL     1      -0.005  -2.425   1.633  1.00  0.00    +0.143 A 
ATOM     21  N   UNL     1      -1.307  -3.384   0.206  1.00  0.00    -0.285 N 
ATOM     22  N   UNL     1      -1.023  -3.298   1.495  1.00  0.00    -0.184 NA
ATOM     23  H   UNL     1      -2.058  -3.989  -0.194  1.00  0.00    +0.189 HD
ENDBRANCH   8  18
ENDBRANCH   1   3
BRANCH   1  24
ATOM     24  C   UNL     1      -1.255   0.422  -0.918  1.00  0.00    +0.040 A 
ATOM     25  C   UNL     1      -2.409   0.159  -1.663  1.00  0.00    +0.027 A 
ATOM     26  C   UNL     1      -1.382   0.765   0.437  1.00  0.00    +0.027 A 
ATOM     27  C   UNL     1      -3.667   0.191  -1.058  1.00  0.00    +0.016 A 
ATOM     28  C   UNL     1      -2.638   0.791   1.048  1.00  0.00    +0.016 A 
ATOM     29  C   UNL     1      -3.796   0.497   0.309  1.00  0.00    +0.039 A 
BRANCH  29  30
ATOM     30  C   UNL     1      -5.117   0.475   0.983  1.00  0.00    +0.251 C 
ATOM     31  O   UNL     1      -5.168   0.398   2.244  1.00  0.00    -0.269 OA
ATOM     32  N   UNL     1      -6.338   0.544   0.226  1.00  0.00    -0.350 N 
ATOM     33  H   UNL     1      -6.320   0.955  -0.734  1.00  0.00    +0.164 HD
BRANCH  32  34
ATOM     34  C   UNL     1      -7.644   0.210   0.801  1.00  0.00    +0.076 C 
ATOM     35  C   UNL     1      -8.412  -0.702  -0.160  1.00  0.00    +0.030 C 
ATOM     36  C   UNL     1      -8.427   1.492   1.082  1.00  0.00    +0.030 C 
ENDBRANCH  32  34
ENDBRANCH  29  30
ENDBRANCH   1  24
TORSDOF 7
