REMARK SMILES CC(C)NC(=O)C1(c2ccc(Cl)cc2)CCN(c2nc3ccccc3nc2N)CC1
REMARK SMILES IDX 7 1 15 2 16 3 17 4 29 5 30 6 5 7 4 8 6 9 2 11 1 12 3 13 8 14
REMARK SMILES IDX 9 15 14 16 10 17 13 18 11 19 12 20 18 21 19 22 27 23 20 24
REMARK SMILES IDX 26 25 21 26 25 27 22 28 24 29 23 30 28 31
REMARK H PARENT 4 10 28 32 28 33
ROOT
ATOM      1  C   UNL     1      -1.290  -0.757   0.377  1.00  0.00    +0.077 C 
ATOM      2  C   UNL     1      -0.375  -1.273   1.537  1.00  0.00    +0.043 C 
ATOM      3  C   UNL     1       0.873  -0.407   1.785  1.00  0.00    +0.119 C 
ATOM      4  N   UNL     1       1.574  -0.140   0.528  1.00  0.00    -0.353 N 
ATOM      5  C   UNL     1       0.792   0.407  -0.578  1.00  0.00    +0.119 C 
ATOM      6  C   UNL     1      -0.387  -0.521  -0.872  1.00  0.00    +0.043 C 
ENDROOT
BRANCH   1   7
ATOM      7  C   UNL     1      -2.005   0.545   0.735  1.00  0.00    +0.230 C 
ATOM      8  N   UNL     1      -2.945   1.126  -0.188  1.00  0.00    -0.353 N 
ATOM      9  O   UNL     1      -1.817   1.086   1.859  1.00  0.00    -0.274 OA
ATOM     10  H   UNL     1      -3.072   0.679  -1.124  1.00  0.00    +0.163 HD
BRANCH   8  11
ATOM     11  C   UNL     1      -3.861   2.209   0.177  1.00  0.00    +0.075 C 
ATOM     12  C   UNL     1      -5.291   1.668   0.231  1.00  0.00    +0.030 C 
ATOM     13  C   UNL     1      -3.744   3.345  -0.842  1.00  0.00    +0.030 C 
ENDBRANCH   8  11
ENDBRANCH   1   7
BRANCH   1  14
ATOM     14  C   UNL     1      -2.388  -1.813   0.119  1.00  0.00    -0.032 A 
ATOM     15  C   UNL     1      -3.283  -2.146   1.162  1.00  0.00    +0.006 A 
ATOM     16  C   UNL     1      -2.584  -2.436  -1.138  1.00  0.00    +0.006 A 
ATOM     17  C   UNL     1      -4.305  -3.082   0.970  1.00  0.00    +0.021 A 
ATOM     18  C   UNL     1      -3.608  -3.373  -1.324  1.00  0.00    +0.021 A 
ATOM     19  C   UNL     1      -4.467  -3.697  -0.272  1.00  0.00    +0.041 A 
ATOM     20 Cl   UNL     1      -5.753  -4.867  -0.513  1.00  0.00    -0.084 Cl
ENDBRANCH   1  14
BRANCH   4  21
ATOM     21  C   UNL     1       3.001   0.022   0.522  1.00  0.00    +0.172 A 
ATOM     22  N   UNL     1       3.534   1.252   0.285  1.00  0.00    -0.225 NA
ATOM     23  C   UNL     1       3.869  -1.073   0.728  1.00  0.00    +0.167 A 
ATOM     24  C   UNL     1       4.877   1.453   0.252  1.00  0.00    +0.091 A 
ATOM     25  N   UNL     1       5.213  -0.866   0.700  1.00  0.00    -0.226 NA
ATOM     26  C   UNL     1       5.402   2.725   0.002  1.00  0.00    +0.031 A 
ATOM     27  C   UNL     1       5.741   0.363   0.468  1.00  0.00    +0.091 A 
ATOM     28  C   UNL     1       6.787   2.909  -0.041  1.00  0.00    +0.002 A 
ATOM     29  C   UNL     1       7.127   0.553   0.436  1.00  0.00    +0.031 A 
ATOM     30  C   UNL     1       7.648   1.828   0.185  1.00  0.00    +0.002 A 
BRANCH  23  31
ATOM     31  N   UNL     1       3.372  -2.401   0.916  1.00  0.00    -0.381 N 
ATOM     32  H   UNL     1       2.355  -2.617   0.880  1.00  0.00    +0.158 HD
ATOM     33  H   UNL     1       4.043  -3.195   0.999  1.00  0.00    +0.158 HD
ENDBRANCH  23  31
ENDBRANCH   4  21
TORSDOF 5
