REMARK SMILES Cc1cc(Nc2ncc(C(=O)Nc3cccc(C)c3Cl)s2)nc(N2CCN(CCO)CC2)n1
REMARK SMILES IDX 4 1 3 2 2 3 33 4 23 5 22 6 1 7 5 8 6 10 9 11 8 12 21 13 7 14
REMARK SMILES IDX 10 15 12 16 11 17 13 19 17 20 16 21 19 22 15 23 14 24 18 25
REMARK SMILES IDX 20 26 24 27 25 28 32 29 26 30 31 31 27 32 28 33 29 34 30 35
REMARK H PARENT 5 9 12 18 30 36
ROOT
ATOM      1  C   UNL     1       0.690   1.006   0.646  1.00  0.00    +0.138 A 
ATOM      2  C   UNL     1       0.127  -0.045   1.385  1.00  0.00    +0.070 A 
ATOM      3  C   UNL     1       0.958  -1.089   1.806  1.00  0.00    +0.045 A 
ATOM      4  N   UNL     1       2.290  -1.037   1.538  1.00  0.00    -0.218 NA
ATOM      5  C   UNL     1       2.836  -0.004   0.841  1.00  0.00    +0.227 A 
ATOM      6  N   UNL     1       2.028   1.001   0.405  1.00  0.00    -0.195 NA
ATOM      7  C   UNL     1       0.421  -2.217   2.631  1.00  0.00    +0.067 C 
ENDROOT
BRANCH   1   8
ATOM      8  N   UNL     1      -0.078   2.151   0.242  1.00  0.00    -0.316 N 
ATOM      9  H   UNL     1       0.440   3.047   0.096  1.00  0.00    +0.170 HD
BRANCH   8  10
ATOM     10  C   UNL     1      -1.508   2.195   0.114  1.00  0.00    +0.189 A 
ATOM     11  C   UNL     1      -3.891   1.885  -0.372  1.00  0.00    +0.114 A 
ATOM     12  C   UNL     1      -3.531   3.162   0.059  1.00  0.00    +0.139 A 
ATOM     13  S   UNL     1      -2.491   0.936  -0.433  1.00  0.00    -0.091 S 
ATOM     14  N   UNL     1      -2.211   3.330   0.320  1.00  0.00    -0.228 NA
BRANCH  11  15
ATOM     15  C   UNL     1      -5.266   1.451  -0.676  1.00  0.00    +0.267 C 
ATOM     16  N   UNL     1      -5.558   0.083  -1.009  1.00  0.00    -0.320 N 
ATOM     17  O   UNL     1      -6.206   2.291  -0.597  1.00  0.00    -0.268 OA
ATOM     18  H   UNL     1      -4.779  -0.616  -0.990  1.00  0.00    +0.170 HD
BRANCH  16  19
ATOM     19  C   UNL     1      -6.903  -0.409  -1.096  1.00  0.00    +0.060 A 
ATOM     20  C   UNL     1      -8.650  -1.963  -0.380  1.00  0.00    -0.030 A 
ATOM     21  C   UNL     1      -9.554  -1.323  -1.245  1.00  0.00    +0.005 A 
ATOM     22  C   UNL     1      -7.311  -1.513  -0.318  1.00  0.00    +0.067 A 
ATOM     23  C   UNL     1      -9.139  -0.245  -2.029  1.00  0.00    +0.003 A 
ATOM     24  C   UNL     1      -7.822   0.209  -1.956  1.00  0.00    +0.028 A 
ATOM     25  C   UNL     1      -9.119  -3.110   0.472  1.00  0.00    +0.046 C 
ATOM     26 Cl   UNL     1      -6.161  -2.295   0.769  1.00  0.00    -0.082 Cl
ENDBRANCH  16  19
ENDBRANCH  11  15
ENDBRANCH   8  10
ENDBRANCH   1   8
BRANCH   5  27
ATOM     27  N   UNL     1       4.258   0.041   0.594  1.00  0.00    -0.338 N 
ATOM     28  C   UNL     1       5.136  -1.013   1.116  1.00  0.00    +0.135 C 
ATOM     29  C   UNL     1       4.856   1.154  -0.158  1.00  0.00    +0.135 C 
ATOM     30  C   UNL     1       6.382  -1.135   0.235  1.00  0.00    +0.106 C 
ATOM     31  C   UNL     1       6.318   1.362   0.263  1.00  0.00    +0.106 C 
ATOM     32  N   UNL     1       7.148   0.134   0.140  1.00  0.00    -0.298 NA
BRANCH  32  33
ATOM     33  C   UNL     1       7.999   0.169  -1.071  1.00  0.00    +0.112 C 
BRANCH  33  34
ATOM     34  C   UNL     1       9.109  -0.891  -1.015  1.00  0.00    +0.171 C 
BRANCH  34  35
ATOM     35  O   UNL     1      10.020  -0.697  -2.061  1.00  0.00    -0.395 OA
ATOM     36  H   UNL     1       9.568  -1.003  -2.891  1.00  0.00    +0.210 HD
ENDBRANCH  34  35
ENDBRANCH  33  34
ENDBRANCH  32  33
ENDBRANCH   5  27
TORSDOF 8
