REMARK SMILES CN1CCN(c2ccc(Nc3ncc4c(n3)n(-c3c(F)cccc3F)c(=O)n4C)cc2)CC1
REMARK SMILES IDX 10 1 9 3 6 4 7 5 31 6 8 7 30 8 5 9 2 10 3 11 33 12 4 13
REMARK SMILES IDX 32 14 1 15 11 16 12 17 16 18 13 19 15 20 14 21 17 22 28 23
REMARK SMILES IDX 26 24 27 25 29 26 18 27 24 28 19 29 23 30 21 31 22 32 25 33
REMARK SMILES IDX 20 34
REMARK H PARENT 10 2
ROOT
ATOM      1  N   UNL     1      -0.815  -0.828  -0.326  1.00  0.00    -0.324 N 
ATOM      2  H   UNL     1      -1.104  -1.681  -0.859  1.00  0.00    +0.170 HD
ENDROOT
BRANCH   1   3
ATOM      3  C   UNL     1       0.596  -0.542  -0.267  1.00  0.00    +0.041 A 
ATOM      4  C   UNL     1       3.406  -0.185  -0.147  1.00  0.00    +0.037 A 
ATOM      5  C   UNL     1       2.564   0.442   0.787  1.00  0.00    +0.028 A 
ATOM      6  C   UNL     1       2.828  -0.998  -1.139  1.00  0.00    +0.028 A 
ATOM      7  C   UNL     1       1.178   0.246   0.746  1.00  0.00    +0.028 A 
ATOM      8  C   UNL     1       1.444  -1.175  -1.194  1.00  0.00    +0.028 A 
BRANCH   4   9
ATOM      9  N   UNL     1       4.839  -0.021  -0.081  1.00  0.00    -0.369 N 
ATOM     10  N   UNL     1       7.736   0.287   0.035  1.00  0.00    -0.303 NA
ATOM     11  C   UNL     1       6.829   1.424  -0.269  1.00  0.00    +0.105 C 
ATOM     12  C   UNL     1       7.052  -0.966   0.425  1.00  0.00    +0.105 C 
ATOM     13  C   UNL     1       5.425   1.260   0.340  1.00  0.00    +0.132 C 
ATOM     14  C   UNL     1       5.731  -1.159  -0.327  1.00  0.00    +0.132 C 
ATOM     15  C   UNL     1       8.746   0.655   1.041  1.00  0.00    +0.105 C 
ENDBRANCH   4   9
ENDBRANCH   1   3
BRANCH   1  16
ATOM     16  C   UNL     1      -1.886  -0.012   0.178  1.00  0.00    +0.229 A 
ATOM     17  N   UNL     1      -1.646   1.209   0.762  1.00  0.00    -0.219 NA
ATOM     18  N   UNL     1      -3.174  -0.451   0.029  1.00  0.00    -0.192 NA
ATOM     19  C   UNL     1      -2.656   1.987   1.254  1.00  0.00    +0.145 A 
ATOM     20  C   UNL     1      -4.180   0.322   0.503  1.00  0.00    +0.171 A 
ATOM     21  C   UNL     1      -3.954   1.512   1.120  1.00  0.00    +0.107 A 
ATOM     22  N   UNL     1      -5.500   0.073   0.450  1.00  0.00    -0.238 N 
ATOM     23  N   UNL     1      -5.129   2.050   1.501  1.00  0.00    -0.292 N 
ATOM     24  C   UNL     1      -6.053   1.153   1.065  1.00  0.00    +0.334 A 
ATOM     25  O   UNL     1      -7.294   1.322   1.191  1.00  0.00    -0.247 OA
ATOM     26  C   UNL     1      -5.355   3.348   2.128  1.00  0.00    +0.155 C 
BRANCH  22  27
ATOM     27  C   UNL     1      -6.165  -1.034  -0.180  1.00  0.00    +0.124 A 
ATOM     28  C   UNL     1      -5.941  -1.318  -1.541  1.00  0.00    +0.150 A 
ATOM     29  C   UNL     1      -7.049  -1.843   0.555  1.00  0.00    +0.150 A 
ATOM     30  C   UNL     1      -6.591  -2.394  -2.151  1.00  0.00    +0.042 A 
ATOM     31  C   UNL     1      -7.687  -2.926  -0.058  1.00  0.00    +0.042 A 
ATOM     32  C   UNL     1      -7.460  -3.201  -1.410  1.00  0.00    +0.006 A 
ATOM     33  F   UNL     1      -5.112  -0.537  -2.278  1.00  0.00    -0.205 F 
ATOM     34  F   UNL     1      -7.265  -1.601   1.875  1.00  0.00    -0.205 F 
ENDBRANCH  22  27
ENDBRANCH   1  16
TORSDOF 4
