REMARK SMILES CS(=O)(=O)CCNCc1ccc(-c2ccc3ncnc(Nc4ccc(OCc5cccc(F)c5)c(Cl)c4)c3c2)o1
REMARK SMILES IDX 13 1 14 2 15 3 16 4 38 5 39 6 20 7 19 8 18 9 17 10 12 11
REMARK SMILES IDX 9 12 10 13 40 14 11 15 8 16 7 17 6 19 5 20 2 21 3 22 4 23
REMARK SMILES IDX 1 24 21 25 22 27 23 28 37 29 24 30 35 31 25 32 36 33 26 34
REMARK SMILES IDX 27 35 28 36 29 37 34 38 30 39 32 40 31 41 33 42
REMARK H PARENT 7 18 21 26
ROOT
ATOM      1  C   UNL     1       2.835   1.920   0.461  1.00  0.00    +0.018 A 
ATOM      2  C   UNL     1       3.169   3.159  -0.108  1.00  0.00    +0.014 A 
ATOM      3  C   UNL     1       2.182   3.975  -0.662  1.00  0.00    +0.030 A 
ATOM      4  C   UNL     1       0.843   3.578  -0.636  1.00  0.00    +0.076 A 
ATOM      5  C   UNL     1       0.477   2.349  -0.041  1.00  0.00    +0.044 A 
ATOM      6  C   UNL     1       1.487   1.514   0.478  1.00  0.00    +0.026 A 
ATOM      7  C   UNL     1      -0.900   2.015  -0.004  1.00  0.00    +0.141 A 
ATOM      8  N   UNL     1      -1.798   2.873  -0.562  1.00  0.00    -0.219 NA
ATOM      9  C   UNL     1      -1.414   4.030  -1.156  1.00  0.00    +0.224 A 
ATOM     10  N   UNL     1      -0.106   4.381  -1.181  1.00  0.00    -0.236 NA
ENDROOT
BRANCH   1  11
ATOM     11  C   UNL     1       3.906   1.072   1.036  1.00  0.00    +0.134 A 
ATOM     12  C   UNL     1       5.857   0.477   1.668  1.00  0.00    +0.118 A 
ATOM     13  C   UNL     1       5.029  -0.583   1.976  1.00  0.00    +0.047 A 
ATOM     14  O   UNL     1       5.165   1.446   1.111  1.00  0.00    -0.460 OA
ATOM     15  C   UNL     1       3.769  -0.203   1.569  1.00  0.00    +0.051 A 
BRANCH  12  16
ATOM     16  C   UNL     1       7.333   0.523   1.892  1.00  0.00    +0.157 C 
BRANCH  16  17
ATOM     17  N   UNL     1       8.024  -0.416   0.995  1.00  0.00    -0.309 NA
ATOM     18  H   UNL     1       8.988  -0.553   1.379  1.00  0.00    +0.123 HD
BRANCH  17  19
ATOM     19  C   UNL     1       8.157   0.096  -0.381  1.00  0.00    +0.097 C 
BRANCH  19  20
ATOM     20  C   UNL     1       7.056  -0.459  -1.294  1.00  0.00    +0.152 C 
BRANCH  20  21
ATOM     21  S   UNL     1       7.064  -2.247  -1.378  1.00  0.00    +0.148 S 
ATOM     22  O   UNL     1       6.730  -2.826  -0.032  1.00  0.00    -0.229 OA
ATOM     23  O   UNL     1       6.025  -2.690  -2.369  1.00  0.00    -0.229 OA
ATOM     24  C   UNL     1       8.655  -2.845  -1.901  1.00  0.00    +0.158 C 
ENDBRANCH  20  21
ENDBRANCH  19  20
ENDBRANCH  17  19
ENDBRANCH  16  17
ENDBRANCH  12  16
ENDBRANCH   1  11
BRANCH   7  25
ATOM     25  N   UNL     1      -1.380   0.846   0.691  1.00  0.00    -0.340 N 
ATOM     26  H   UNL     1      -0.826   0.488   1.499  1.00  0.00    +0.168 HD
BRANCH  25  27
ATOM     27  C   UNL     1      -2.710   0.318   0.541  1.00  0.00    +0.041 A 
ATOM     28  C   UNL     1      -3.381   0.351  -0.694  1.00  0.00    +0.030 A 
ATOM     29  C   UNL     1      -3.342  -0.276   1.644  1.00  0.00    +0.050 A 
ATOM     30  C   UNL     1      -4.685  -0.142  -0.803  1.00  0.00    +0.050 A 
ATOM     31  C   UNL     1      -4.643  -0.775   1.535  1.00  0.00    +0.085 A 
ATOM     32  C   UNL     1      -5.332  -0.697   0.317  1.00  0.00    +0.138 A 
ATOM     33 Cl   UNL     1      -5.409  -1.483   2.949  1.00  0.00    -0.080 Cl
BRANCH  32  34
ATOM     34  O   UNL     1      -6.651  -1.174   0.259  1.00  0.00    -0.487 OA
BRANCH  34  35
ATOM     35  C   UNL     1      -7.511  -1.048  -0.872  1.00  0.00    +0.265 C 
BRANCH  35  36
ATOM     36  C   UNL     1      -8.868  -1.576  -0.515  1.00  0.00    -0.008 A 
ATOM     37  C   UNL     1      -9.230  -2.894  -0.845  1.00  0.00    +0.007 A 
ATOM     38  C   UNL     1      -9.764  -0.778   0.214  1.00  0.00    +0.046 A 
ATOM     39  C   UNL     1     -10.483  -3.393  -0.473  1.00  0.00    +0.003 A 
ATOM     40  C   UNL     1     -11.015  -1.281   0.586  1.00  0.00    +0.123 A 
ATOM     41  C   UNL     1     -11.375  -2.588   0.241  1.00  0.00    +0.039 A 
ATOM     42  F   UNL     1     -11.879  -0.503   1.284  1.00  0.00    -0.207 F 
ENDBRANCH  35  36
ENDBRANCH  34  35
ENDBRANCH  32  34
ENDBRANCH  25  27
ENDBRANCH   7  25
TORSDOF 11
