REMARK SMILES C=CC(=O)Nc1cc(OC)c(Nc2nc(Nc3ccccc3)nc(C)c2C(=O)OC(C)C)cc1N(C)CCN(C)C
REMARK SMILES IDX 11 1 33 2 34 3 6 4 7 5 8 6 12 7 13 9 26 10 24 11 23 12 14 13
REMARK SMILES IDX 15 14 25 15 27 16 28 17 29 18 30 19 31 20 32 21 16 22 17 24
REMARK SMILES IDX 18 25 22 26 19 27 21 28 20 29 9 30 10 31 35 32 36 33 37 34
REMARK SMILES IDX 38 35 39 36 40 37 41 38 5 39 3 40 4 41 2 43 1 44
REMARK H PARENT 12 8 16 23 5 42
ROOT
ATOM      1  C   UNL     1      -0.177   0.604  -0.656  1.00  0.00    +0.085 A 
ATOM      2  C   UNL     1       0.717  -0.348  -1.160  1.00  0.00    +0.058 A 
ATOM      3  C   UNL     1       1.919  -0.623  -0.494  1.00  0.00    +0.063 A 
ATOM      4  C   UNL     1       2.244   0.091   0.676  1.00  0.00    +0.068 A 
ATOM      5  C   UNL     1       1.358   1.060   1.169  1.00  0.00    +0.077 A 
ATOM      6  C   UNL     1       0.144   1.323   0.508  1.00  0.00    +0.144 A 
ENDROOT
BRANCH   1   7
ATOM      7  N   UNL     1      -1.414   0.850  -1.334  1.00  0.00    -0.336 N 
ATOM      8  H   UNL     1      -1.418   0.958  -2.373  1.00  0.00    +0.168 HD
BRANCH   7   9
ATOM      9  C   UNL     1      -2.663   0.677  -0.657  1.00  0.00    +0.151 A 
ATOM     10  C   UNL     1      -3.639   1.699  -0.626  1.00  0.00    +0.124 A 
ATOM     11  C   UNL     1      -4.847   1.416   0.067  1.00  0.00    +0.060 A 
ATOM     12  N   UNL     1      -5.038   0.184   0.607  1.00  0.00    -0.217 NA
ATOM     13  N   UNL     1      -2.915  -0.519  -0.066  1.00  0.00    -0.194 NA
ATOM     14  C   UNL     1      -4.095  -0.788   0.540  1.00  0.00    +0.229 A 
ATOM     15  C   UNL     1      -5.936   2.432   0.265  1.00  0.00    +0.068 C 
BRANCH  10  16
ATOM     16  C   UNL     1      -3.371   3.037  -1.230  1.00  0.00    +0.344 C 
ATOM     17  O   UNL     1      -2.185   3.432  -1.397  1.00  0.00    -0.246 OA
BRANCH  16  18
ATOM     18  O   UNL     1      -4.431   3.873  -1.599  1.00  0.00    -0.459 OA
BRANCH  18  19
ATOM     19  C   UNL     1      -4.286   5.267  -1.859  1.00  0.00    +0.170 C 
ATOM     20  C   UNL     1      -3.932   6.009  -0.565  1.00  0.00    +0.052 C 
ATOM     21  C   UNL     1      -5.599   5.802  -2.428  1.00  0.00    +0.052 C 
ENDBRANCH  18  19
ENDBRANCH  16  18
ENDBRANCH  10  16
BRANCH  14  22
ATOM     22  N   UNL     1      -4.369  -2.073   1.130  1.00  0.00    -0.324 N 
ATOM     23  H   UNL     1      -5.281  -2.137   1.640  1.00  0.00    +0.170 HD
BRANCH  22  24
ATOM     24  C   UNL     1      -3.524  -3.248   1.159  1.00  0.00    +0.041 A 
ATOM     25  C   UNL     1      -2.408  -3.426   0.311  1.00  0.00    +0.026 A 
ATOM     26  C   UNL     1      -3.869  -4.293   2.040  1.00  0.00    +0.026 A 
ATOM     27  C   UNL     1      -1.636  -4.592   0.386  1.00  0.00    +0.002 A 
ATOM     28  C   UNL     1      -3.109  -5.467   2.094  1.00  0.00    +0.002 A 
ATOM     29  C   UNL     1      -1.987  -5.612   1.274  1.00  0.00    +0.000 A 
ENDBRANCH  22  24
ENDBRANCH  14  22
ENDBRANCH   7   9
ENDBRANCH   1   7
BRANCH   6  30
ATOM     30  O   UNL     1      -0.746   2.308   0.962  1.00  0.00    -0.494 OA
ATOM     31  C   UNL     1      -0.534   3.131   2.104  1.00  0.00    +0.278 C 
ENDBRANCH   6  30
BRANCH   3  32
ATOM     32  N   UNL     1       2.754  -1.702  -0.955  1.00  0.00    -0.372 N 
ATOM     33  C   UNL     1       2.760  -2.953  -0.194  1.00  0.00    +0.143 C 
BRANCH  32  34
ATOM     34  C   UNL     1       3.391  -1.631  -2.277  1.00  0.00    +0.131 C 
BRANCH  34  35
ATOM     35  C   UNL     1       4.884  -1.313  -2.166  1.00  0.00    +0.105 C 
BRANCH  35  36
ATOM     36  N   UNL     1       5.632  -2.501  -1.687  1.00  0.00    -0.308 NA
ATOM     37  C   UNL     1       6.282  -2.248  -0.387  1.00  0.00    +0.105 C 
ATOM     38  C   UNL     1       6.641  -2.929  -2.671  1.00  0.00    +0.105 C 
ENDBRANCH  35  36
ENDBRANCH  34  35
ENDBRANCH  32  34
ENDBRANCH   3  32
BRANCH   4  39
ATOM     39  N   UNL     1       3.511  -0.102   1.314  1.00  0.00    -0.321 N 
ATOM     40  C   UNL     1       3.639  -0.342   2.726  1.00  0.00    +0.247 C 
ATOM     41  O   UNL     1       2.610  -0.578   3.414  1.00  0.00    -0.270 OA
ATOM     42  H   UNL     1       4.354  -0.153   0.704  1.00  0.00    +0.170 HD
BRANCH  40  43
ATOM     43  C   UNL     1       4.955  -0.374   3.393  1.00  0.00    +0.064 C 
ATOM     44  C   UNL     1       6.069   0.120   2.854  1.00  0.00    +0.014 C 
ENDBRANCH  40  43
ENDBRANCH   4  39
TORSDOF 14
