REMARK SMILES CC(C)N1C(=O)c2cc(-c3nc(Nc4ccc(C(=O)N(C)C)cn4)ncc3F)ccc21
REMARK SMILES IDX 12 1 25 2 26 3 27 4 10 5 11 6 28 7 13 8 14 10 17 11 16 12
REMARK SMILES IDX 23 13 15 14 24 15 18 16 20 17 19 18 21 19 22 20 9 21 8 22
REMARK SMILES IDX 29 23 7 24 30 25 31 26 5 27 4 28 6 29 2 30 1 31 3 32
REMARK H PARENT 13 9
ROOT
ATOM      1  C   UNL     1      -0.842  -0.726  -0.033  1.00  0.00    +0.229 A 
ATOM      2  N   UNL     1      -1.214  -1.681  -0.927  1.00  0.00    -0.218 NA
ATOM      3  C   UNL     1      -0.294  -2.339  -1.675  1.00  0.00    +0.156 A 
ATOM      4  C   UNL     1       1.059  -2.038  -1.540  1.00  0.00    +0.167 A 
ATOM      5  C   UNL     1       1.437  -1.042  -0.625  1.00  0.00    +0.112 A 
ATOM      6  N   UNL     1       0.475  -0.421   0.110  1.00  0.00    -0.210 NA
ATOM      7  F   UNL     1       1.974  -2.743  -2.249  1.00  0.00    -0.203 F 
ENDROOT
BRANCH   1   8
ATOM      8  N   UNL     1      -1.817  -0.022   0.753  1.00  0.00    -0.309 N 
ATOM      9  H   UNL     1      -1.459   0.703   1.416  1.00  0.00    +0.171 HD
BRANCH   8  10
ATOM     10  C   UNL     1      -3.242  -0.193   0.644  1.00  0.00    +0.132 A 
ATOM     11  C   UNL     1      -6.005  -0.476   0.374  1.00  0.00    +0.058 A 
ATOM     12  C   UNL     1      -5.482   0.511   1.219  1.00  0.00    +0.019 A 
ATOM     13  C   UNL     1      -5.115  -1.330  -0.290  1.00  0.00    +0.127 A 
ATOM     14  C   UNL     1      -4.100   0.654   1.356  1.00  0.00    +0.048 A 
ATOM     15  N   UNL     1      -3.773  -1.165  -0.148  1.00  0.00    -0.238 NA
BRANCH  11  16
ATOM     16  C   UNL     1      -7.464  -0.649   0.213  1.00  0.00    +0.254 C 
ATOM     17  N   UNL     1      -8.334   0.459  -0.106  1.00  0.00    -0.345 N 
ATOM     18  O   UNL     1      -7.949  -1.806   0.336  1.00  0.00    -0.269 OA
ATOM     19  C   UNL     1      -9.785   0.280   0.009  1.00  0.00    +0.146 C 
ATOM     20  C   UNL     1      -7.796   1.701  -0.674  1.00  0.00    +0.146 C 
ENDBRANCH  11  16
ENDBRANCH   8  10
ENDBRANCH   1   8
BRANCH   5  21
ATOM     21  C   UNL     1       2.853  -0.659  -0.428  1.00  0.00    +0.004 A 
ATOM     22  C   UNL     1       3.316  -0.358   0.884  1.00  0.00    +0.026 A 
ATOM     23  C   UNL     1       3.743  -0.537  -1.553  1.00  0.00    +0.012 A 
ATOM     24  C   UNL     1       4.641   0.019   0.984  1.00  0.00    +0.064 A 
ATOM     25  C   UNL     1       5.092  -0.142  -1.390  1.00  0.00    +0.028 A 
ATOM     26  C   UNL     1       5.473   0.120  -0.091  1.00  0.00    +0.057 A 
ATOM     27  C   UNL     1       5.711   0.428   1.872  1.00  0.00    +0.260 C 
ATOM     28  N   UNL     1       6.566   0.527   0.738  1.00  0.00    -0.305 N 
ATOM     29  O   UNL     1       5.833   0.620   3.111  1.00  0.00    -0.269 OA
BRANCH  28  30
ATOM     30  C   UNL     1       7.961   0.895   0.521  1.00  0.00    +0.085 C 
ATOM     31  C   UNL     1       8.040   2.110  -0.405  1.00  0.00    +0.031 C 
ATOM     32  C   UNL     1       8.721  -0.296  -0.063  1.00  0.00    +0.031 C 
ENDBRANCH  28  30
ENDBRANCH   5  21
TORSDOF 5
