REMARK SMILES CCCS(=O)(=O)Nc1ccc(F)c(C(=O)c2c[nH]c3ncc(-c4ccc(Cl)cc4)cc23)c1F
REMARK SMILES IDX 8 1 9 2 10 3 11 4 13 5 32 6 33 7 12 8 7 9 4 11 5 12 6 13
REMARK SMILES IDX 3 14 2 15 1 16 14 17 15 18 16 19 17 20 31 21 18 22 19 23
REMARK SMILES IDX 30 24 20 25 22 26 21 27 23 29 24 30 29 31 25 32 28 33 26 34
REMARK SMILES IDX 27 35
REMARK H PARENT 7 10 18 28
ROOT
ATOM      1  C   UNL     1      -3.122   0.394  -2.010  1.00  0.00    +0.085 A 
ATOM      2  C   UNL     1      -3.551  -0.596  -2.907  1.00  0.00    +0.033 A 
ATOM      3  C   UNL     1      -2.649  -1.544  -3.392  1.00  0.00    +0.042 A 
ATOM      4  C   UNL     1      -1.308  -1.507  -3.004  1.00  0.00    +0.137 A 
ATOM      5  C   UNL     1      -0.848  -0.502  -2.134  1.00  0.00    +0.096 A 
ATOM      6  C   UNL     1      -1.770   0.443  -1.632  1.00  0.00    +0.161 A 
ATOM      7  F   UNL     1      -1.377   1.368  -0.723  1.00  0.00    -0.204 F 
ATOM      8  F   UNL     1      -0.455  -2.436  -3.508  1.00  0.00    -0.206 F 
ENDROOT
BRANCH   1   9
ATOM      9  N   UNL     1      -4.038   1.372  -1.501  1.00  0.00    -0.281 N 
ATOM     10  H   UNL     1      -3.677   2.333  -1.310  1.00  0.00    +0.180 HD
BRANCH   9  11
ATOM     11  S   UNL     1      -5.544   0.956  -0.745  1.00  0.00    +0.232 S 
ATOM     12  O   UNL     1      -6.373   2.206  -0.643  1.00  0.00    -0.207 OA
ATOM     13  O   UNL     1      -6.297  -0.045  -1.574  1.00  0.00    -0.207 OA
BRANCH  11  14
ATOM     14  C   UNL     1      -5.271   0.337   0.919  1.00  0.00    +0.159 C 
BRANCH  14  15
ATOM     15  C   UNL     1      -4.385  -0.918   0.969  1.00  0.00    +0.015 C 
ATOM     16  C   UNL     1      -5.134  -2.184   0.561  1.00  0.00    +0.005 C 
ENDBRANCH  14  15
ENDBRANCH  11  14
ENDBRANCH   9  11
ENDBRANCH   1   9
BRANCH   5  17
ATOM     17  C   UNL     1       0.574  -0.480  -1.710  1.00  0.00    +0.201 C 
ATOM     18  O   UNL     1       1.174  -1.570  -1.509  1.00  0.00    -0.288 OA
BRANCH  17  19
ATOM     19  C   UNL     1       1.310   0.784  -1.517  1.00  0.00    +0.050 A 
ATOM     20  C   UNL     1       1.081   1.993  -2.175  1.00  0.00    +0.097 A 
ATOM     21  C   UNL     1       2.367   1.025  -0.656  1.00  0.00    +0.030 A 
ATOM     22  N   UNL     1       1.943   2.942  -1.740  1.00  0.00    -0.345 N 
ATOM     23  C   UNL     1       2.708   2.338  -0.818  1.00  0.00    +0.138 A 
ATOM     24  C   UNL     1       3.020   0.226   0.281  1.00  0.00    +0.023 A 
ATOM     25  N   UNL     1       3.686   2.925  -0.086  1.00  0.00    -0.238 NA
ATOM     26  C   UNL     1       4.044   0.817   1.056  1.00  0.00    +0.001 A 
ATOM     27  C   UNL     1       4.364   2.187   0.844  1.00  0.00    +0.122 A 
ATOM     28  H   UNL     1       1.994   3.938  -2.048  1.00  0.00    +0.167 HD
BRANCH  26  29
ATOM     29  C   UNL     1       4.766   0.026   2.082  1.00  0.00    -0.017 A 
ATOM     30  C   UNL     1       5.187  -1.287   1.800  1.00  0.00    +0.010 A 
ATOM     31  C   UNL     1       5.033   0.573   3.352  1.00  0.00    +0.010 A 
ATOM     32  C   UNL     1       5.854  -2.037   2.772  1.00  0.00    +0.021 A 
ATOM     33  C   UNL     1       5.700  -0.183   4.320  1.00  0.00    +0.021 A 
ATOM     34  C   UNL     1       6.117  -1.485   4.028  1.00  0.00    +0.041 A 
ATOM     35 Cl   UNL     1       6.966  -2.431   5.236  1.00  0.00    -0.084 Cl
ENDBRANCH  26  29
ENDBRANCH  17  19
ENDBRANCH   5  17
TORSDOF 7
