REMARK SMILES Cc1cc(-c2c(F)ccc(Cl)c2F)c(N2CCN(C(=O)c3cccnc3NC3CCN(C)CC3)CC2)cn1
REMARK SMILES IDX 15 1 16 2 17 3 18 4 35 5 36 6 19 7 20 8 14 9 2 10 38 11 3 12
REMARK SMILES IDX 37 13 4 14 1 15 5 16 6 17 12 18 8 19 10 20 9 21 7 22 13 23
REMARK SMILES IDX 11 24 21 25 26 26 22 27 25 28 23 29 24 30 27 31 28 33 29 34
REMARK SMILES IDX 34 35 30 36 33 37 31 38 32 39
REMARK H PARENT 27 32
ROOT
ATOM      1  N   UNL     1       3.259  -1.015   1.267  1.00  0.00    -0.366 N 
ATOM      2  C   UNL     1       2.203  -2.029   1.514  1.00  0.00    +0.138 C 
ATOM      3  C   UNL     1       0.885  -1.396   1.983  1.00  0.00    +0.141 C 
ATOM      4  N   UNL     1       0.656  -0.149   1.234  1.00  0.00    -0.335 N 
ATOM      5  C   UNL     1       1.709   0.884   1.290  1.00  0.00    +0.141 C 
ATOM      6  C   UNL     1       3.008   0.308   1.870  1.00  0.00    +0.138 C 
ATOM      7  C   UNL     1      -0.547   0.096   0.466  1.00  0.00    +0.257 C 
ATOM      8  O   UNL     1      -0.751   1.249  -0.010  1.00  0.00    -0.269 OA
ENDROOT
BRANCH   1   9
ATOM      9  C   UNL     1       4.326  -1.342   0.307  1.00  0.00    +0.064 A 
ATOM     10  C   UNL     1       5.987  -2.209  -1.796  1.00  0.00    +0.038 A 
ATOM     11  N   UNL     1       5.413  -3.098  -0.954  1.00  0.00    -0.259 NA
ATOM     12  C   UNL     1       5.830  -0.843  -1.566  1.00  0.00    +0.034 A 
ATOM     13  C   UNL     1       4.621  -2.707   0.075  1.00  0.00    +0.137 A 
ATOM     14  C   UNL     1       5.024  -0.393  -0.510  1.00  0.00    +0.014 A 
ATOM     15  C   UNL     1       6.821  -2.708  -2.932  1.00  0.00    +0.067 C 
BRANCH  14  16
ATOM     16  C   UNL     1       5.084   1.058  -0.251  1.00  0.00    +0.057 A 
ATOM     17  C   UNL     1       6.058   1.559   0.635  1.00  0.00    +0.134 A 
ATOM     18  C   UNL     1       4.251   1.953  -0.946  1.00  0.00    +0.152 A 
ATOM     19  C   UNL     1       6.135   2.931   0.891  1.00  0.00    +0.041 A 
ATOM     20  C   UNL     1       4.327   3.330  -0.675  1.00  0.00    +0.077 A 
ATOM     21  C   UNL     1       5.264   3.810   0.251  1.00  0.00    +0.026 A 
ATOM     22  F   UNL     1       6.909   0.713   1.276  1.00  0.00    -0.206 F 
ATOM     23  F   UNL     1       3.359   1.491  -1.858  1.00  0.00    -0.205 F 
ATOM     24 Cl   UNL     1       3.254   4.456  -1.493  1.00  0.00    -0.081 Cl
ENDBRANCH  14  16
ENDBRANCH   1   9
BRANCH   7  25
ATOM     25  C   UNL     1      -1.563  -0.963   0.210  1.00  0.00    +0.082 A 
ATOM     26  C   UNL     1      -2.934  -0.762   0.483  1.00  0.00    +0.139 A 
ATOM     27  C   UNL     1      -1.167  -2.186  -0.353  1.00  0.00    +0.019 A 
ATOM     28  N   UNL     1      -3.806  -1.790   0.290  1.00  0.00    -0.239 NA
ATOM     29  C   UNL     1      -2.088  -3.216  -0.532  1.00  0.00    +0.021 A 
ATOM     30  C   UNL     1      -3.413  -3.004  -0.179  1.00  0.00    +0.113 A 
BRANCH  26  31
ATOM     31  N   UNL     1      -3.421   0.525   0.919  1.00  0.00    -0.367 N 
ATOM     32  H   UNL     1      -2.789   1.151   1.473  1.00  0.00    +0.162 HD
BRANCH  31  33
ATOM     33  C   UNL     1      -4.693   1.109   0.486  1.00  0.00    +0.083 C 
ATOM     34  C   UNL     1      -5.873   0.540   1.290  1.00  0.00    +0.040 C 
ATOM     35  C   UNL     1      -4.925   0.940  -1.032  1.00  0.00    +0.040 C 
ATOM     36  C   UNL     1      -7.180   1.166   0.801  1.00  0.00    +0.086 C 
ATOM     37  C   UNL     1      -6.274   1.540  -1.430  1.00  0.00    +0.086 C 
ATOM     38  N   UNL     1      -7.358   0.909  -0.648  1.00  0.00    -0.306 NA
ATOM     39  C   UNL     1      -8.659   1.428  -1.095  1.00  0.00    +0.105 C 
ENDBRANCH  31  33
ENDBRANCH  26  31
ENDBRANCH   7  25
TORSDOF 5
