REMARK SMILES Cc1cnc(Nc2nccc(N3CCN(C(=O)c4ccccc4F)CC3)n2)c(-c2cc(F)ccc2F)c1
REMARK SMILES IDX 7 1 8 2 9 3 10 4 11 5 27 6 6 7 5 9 2 10 3 11 37 12 4 13
REMARK SMILES IDX 28 14 1 15 29 16 30 17 35 18 31 19 34 20 33 21 36 22 32 23
REMARK SMILES IDX 12 24 13 25 26 26 14 27 25 28 15 29 16 30 17 31 18 32 19 33
REMARK SMILES IDX 23 34 20 35 22 36 21 37 24 38
REMARK H PARENT 6 8
ROOT
ATOM      1  C   UNL     1      -1.689   1.414   1.827  1.00  0.00    +0.230 A 
ATOM      2  N   UNL     1      -1.701   2.491   2.656  1.00  0.00    -0.221 NA
ATOM      3  C   UNL     1      -0.647   2.759   3.467  1.00  0.00    +0.119 A 
ATOM      4  C   UNL     1       0.476   1.930   3.456  1.00  0.00    +0.067 A 
ATOM      5  C   UNL     1       0.480   0.805   2.609  1.00  0.00    +0.134 A 
ATOM      6  N   UNL     1      -0.611   0.586   1.825  1.00  0.00    -0.195 NA
ENDROOT
BRANCH   1   7
ATOM      7  N   UNL     1      -2.806   1.175   0.956  1.00  0.00    -0.308 N 
ATOM      8  H   UNL     1      -3.635   1.797   1.084  1.00  0.00    +0.171 HD
BRANCH   7   9
ATOM      9  C   UNL     1      -2.811   0.201  -0.111  1.00  0.00    +0.140 A 
ATOM     10  C   UNL     1      -2.740  -1.673  -2.187  1.00  0.00    -0.032 A 
ATOM     11  C   UNL     1      -1.659  -1.510  -1.316  1.00  0.00    +0.117 A 
ATOM     12  C   UNL     1      -3.886  -0.893  -1.991  1.00  0.00    +0.017 A 
ATOM     13  N   UNL     1      -1.720  -0.589  -0.321  1.00  0.00    -0.238 NA
ATOM     14  C   UNL     1      -3.930   0.053  -0.959  1.00  0.00    +0.028 A 
ATOM     15  C   UNL     1      -2.698  -2.711  -3.268  1.00  0.00    +0.046 C 
BRANCH  14  16
ATOM     16  C   UNL     1      -5.146   0.870  -0.797  1.00  0.00    +0.024 A 
ATOM     17  C   UNL     1      -6.177   0.430   0.047  1.00  0.00    +0.051 A 
ATOM     18  C   UNL     1      -5.283   2.082  -1.492  1.00  0.00    +0.131 A 
ATOM     19  C   UNL     1      -7.337   1.198   0.196  1.00  0.00    +0.124 A 
ATOM     20  C   UNL     1      -6.443   2.847  -1.338  1.00  0.00    +0.043 A 
ATOM     21  C   UNL     1      -7.469   2.407  -0.495  1.00  0.00    +0.042 A 
ATOM     22  F   UNL     1      -4.295   2.523  -2.312  1.00  0.00    -0.206 F 
ATOM     23  F   UNL     1      -8.332   0.774   1.013  1.00  0.00    -0.207 F 
ENDBRANCH  14  16
ENDBRANCH   7   9
ENDBRANCH   1   7
BRANCH   5  24
ATOM     24  N   UNL     1       1.602  -0.112   2.527  1.00  0.00    -0.353 N 
ATOM     25  C   UNL     1       2.826   0.030   3.329  1.00  0.00    +0.139 C 
ATOM     26  C   UNL     1       1.767  -0.959   1.338  1.00  0.00    +0.139 C 
ATOM     27  C   UNL     1       3.898   0.703   2.469  1.00  0.00    +0.141 C 
ATOM     28  C   UNL     1       2.815  -0.324   0.425  1.00  0.00    +0.141 C 
ATOM     29  N   UNL     1       4.043  -0.021   1.191  1.00  0.00    -0.335 N 
ATOM     30  C   UNL     1       5.356  -0.288   0.647  1.00  0.00    +0.256 C 
ATOM     31  O   UNL     1       6.390  -0.056   1.335  1.00  0.00    -0.269 OA
BRANCH  30  32
ATOM     32  C   UNL     1       5.533  -0.853  -0.701  1.00  0.00    +0.075 A 
ATOM     33  C   UNL     1       5.256  -0.071  -1.835  1.00  0.00    +0.017 A 
ATOM     34  C   UNL     1       5.955  -2.183  -0.858  1.00  0.00    +0.135 A 
ATOM     35  C   UNL     1       5.395  -0.620  -3.114  1.00  0.00    +0.001 A 
ATOM     36  C   UNL     1       6.084  -2.730  -2.139  1.00  0.00    +0.040 A 
ATOM     37  C   UNL     1       5.806  -1.949  -3.265  1.00  0.00    +0.003 A 
ATOM     38  F   UNL     1       6.207  -2.959   0.229  1.00  0.00    -0.206 F 
ENDBRANCH  30  32
ENDBRANCH   5  24
TORSDOF 5
