REMARK SMILES CONC(=O)c1c(Nc2ccc(I)cc2F)cc2[nH]c(C)nc2c1F
REMARK SMILES IDX 21 1 20 2 22 3 23 4 18 5 19 6 17 7 7 8 6 9 24 10 25 11 4 13
REMARK SMILES IDX 5 14 3 15 2 17 1 18 8 19 9 21 15 22 10 23 14 24 11 25 12 26
REMARK SMILES IDX 16 27 13 28
REMARK H PARENT 19 12 3 16 8 20
ROOT
ATOM      1  C   UNL     1      -3.704   4.489   0.294  1.00  0.00    +0.087 C 
ATOM      2  C   UNL     1      -2.921   3.219   0.242  1.00  0.00    +0.104 A 
ATOM      3  N   UNL     1      -3.399   2.038   0.714  1.00  0.00    -0.231 NA
ATOM      4  C   UNL     1      -2.363   1.201   0.517  1.00  0.00    +0.125 A 
ATOM      5  C   UNL     1      -1.314   1.865  -0.035  1.00  0.00    +0.071 A 
ATOM      6  N   UNL     1      -1.647   3.149  -0.215  1.00  0.00    -0.342 N 
ATOM      7  C   UNL     1      -0.111   1.237  -0.331  1.00  0.00    +0.055 A 
ATOM      8  C   UNL     1       0.012  -0.141  -0.036  1.00  0.00    +0.057 A 
ATOM      9  C   UNL     1      -1.093  -0.847   0.538  1.00  0.00    +0.103 A 
ATOM     10  C   UNL     1      -2.296  -0.154   0.822  1.00  0.00    +0.165 A 
ATOM     11  F   UNL     1      -3.350  -0.767   1.419  1.00  0.00    -0.204 F 
ATOM     12  H   UNL     1      -1.058   3.918  -0.607  1.00  0.00    +0.168 HD
ENDROOT
BRANCH   9  13
ATOM     13  C   UNL     1      -0.978  -2.280   0.888  1.00  0.00    +0.280 C 
ATOM     14  O   UNL     1       0.067  -2.704   1.451  1.00  0.00    -0.267 OA
ATOM     15  N   UNL     1      -2.040  -3.194   0.589  1.00  0.00    -0.231 N 
ATOM     16  H   UNL     1      -2.890  -2.863   0.080  1.00  0.00    +0.199 HD
BRANCH  15  17
ATOM     17  O   UNL     1      -1.989  -4.483   1.017  1.00  0.00    -0.277 OA
ATOM     18  C   UNL     1      -1.483  -5.242  -0.052  1.00  0.00    +0.231 C 
ENDBRANCH  15  17
ENDBRANCH   9  13
BRANCH   8  19
ATOM     19  N   UNL     1       1.216  -0.843  -0.398  1.00  0.00    -0.352 N 
ATOM     20  H   UNL     1       1.120  -1.797  -0.815  1.00  0.00    +0.167 HD
BRANCH  19  21
ATOM     21  C   UNL     1       2.530  -0.260  -0.349  1.00  0.00    +0.075 A 
ATOM     22  C   UNL     1       2.914   0.602   0.698  1.00  0.00    +0.147 A 
ATOM     23  C   UNL     1       3.467  -0.599  -1.336  1.00  0.00    +0.030 A 
ATOM     24  C   UNL     1       4.204   1.141   0.725  1.00  0.00    +0.056 A 
ATOM     25  C   UNL     1       4.756  -0.058  -1.305  1.00  0.00    +0.017 A 
ATOM     26  C   UNL     1       5.124   0.816  -0.277  1.00  0.00    +0.016 A 
ATOM     27  F   UNL     1       2.057   0.894   1.709  1.00  0.00    -0.205 F 
ATOM     28  I   UNL     1       7.069   1.629  -0.227  1.00  0.00    -0.044 I 
ENDBRANCH  19  21
ENDBRANCH   8  19
TORSDOF 4
