REMARK SMILES CCCCCOC(=O)Nc1nc(=O)n([C@@H]2O[C@H](C)[C@@H](O)[C@H]2O)cc1F
REMARK SMILES IDX 6 1 5 2 4 3 3 4 2 5 1 6 7 7 8 8 9 9 10 11 11 12 24 13 12 14
REMARK SMILES IDX 23 15 13 16 14 17 25 18 15 19 16 20 21 21 17 22 19 23 18 24
REMARK SMILES IDX 22 25 20 27
REMARK H PARENT 9 10 22 26 20 28
ROOT
ATOM      1  O   UNL     1       3.309  -0.017  -0.409  1.00  0.00    -0.449 OA
ENDROOT
BRANCH   1   2
ATOM      2  C   UNL     1       4.290  -0.642   0.426  1.00  0.00    +0.235 C 
BRANCH   2   3
ATOM      3  C   UNL     1       5.675  -0.429  -0.176  1.00  0.00    +0.042 C 
BRANCH   3   4
ATOM      4  C   UNL     1       6.783  -0.864   0.801  1.00  0.00    +0.003 C 
BRANCH   4   5
ATOM      5  C   UNL     1       8.181  -0.850   0.161  1.00  0.00    -0.003 C 
ATOM      6  C   UNL     1       8.642   0.559  -0.223  1.00  0.00    +0.004 C 
ENDBRANCH   4   5
ENDBRANCH   3   4
ENDBRANCH   2   3
ENDBRANCH   1   2
BRANCH   1   7
ATOM      7  C   UNL     1       1.949  -0.037  -0.098  1.00  0.00    +0.412 C 
ATOM      8  O   UNL     1       1.526  -0.769   0.835  1.00  0.00    -0.224 OA
ATOM      9  N   UNL     1       1.051   0.822  -0.816  1.00  0.00    -0.273 N 
ATOM     10  H   UNL     1       1.476   1.545  -1.443  1.00  0.00    +0.175 HD
BRANCH   9  11
ATOM     11  C   UNL     1      -0.360   0.867  -0.564  1.00  0.00    +0.178 A 
ATOM     12  N   UNL     1      -1.023  -0.251  -0.175  1.00  0.00    -0.172 NA
ATOM     13  C   UNL     1      -1.069   2.057  -0.724  1.00  0.00    +0.182 A 
ATOM     14  C   UNL     1      -2.356  -0.242   0.082  1.00  0.00    +0.351 A 
ATOM     15  C   UNL     1      -2.432   2.069  -0.432  1.00  0.00    +0.137 A 
ATOM     16  O   UNL     1      -2.920  -1.325   0.388  1.00  0.00    -0.246 OA
ATOM     17  N   UNL     1      -3.069   0.934  -0.005  1.00  0.00    -0.267 N 
ATOM     18  F   UNL     1      -0.448   3.191  -1.129  1.00  0.00    -0.201 F 
BRANCH  17  19
ATOM     19  C   UNL     1      -4.520   1.006   0.268  1.00  0.00    +0.255 C 
ATOM     20  O   UNL     1      -4.891   0.122   1.301  1.00  0.00    -0.349 OA
ATOM     21  C   UNL     1      -5.330   0.668  -0.987  1.00  0.00    +0.195 C 
ATOM     22  C   UNL     1      -6.223  -0.247   1.043  1.00  0.00    +0.149 C 
ATOM     23  C   UNL     1      -6.447  -0.221  -0.469  1.00  0.00    +0.176 C 
ATOM     24  C   UNL     1      -6.498  -1.626   1.640  1.00  0.00    +0.041 C 
BRANCH  21  25
ATOM     25  O   UNL     1      -5.829   1.839  -1.584  1.00  0.00    -0.386 OA
ATOM     26  H   UNL     1      -5.067   2.260  -2.062  1.00  0.00    +0.211 HD
ENDBRANCH  21  25
BRANCH  23  27
ATOM     27  O   UNL     1      -7.726   0.289  -0.764  1.00  0.00    -0.388 OA
ATOM     28  H   UNL     1      -7.900   0.090  -1.722  1.00  0.00    +0.211 HD
ENDBRANCH  23  27
ENDBRANCH  17  19
ENDBRANCH   9  11
ENDBRANCH   1   7
TORSDOF 9
