REMARK SMILES O=c1[nH]cc(F)c(=O)[nH]1
REMARK SMILES IDX 1 1 2 2 9 3 7 4 8 5 5 6 6 7 4 8 3 9
REMARK H PARENT 9 10 3 11
ROOT
ATOM      1  O   UNL     1      -2.261  -1.366  -0.047  1.00  0.00    -0.248 OA
ATOM      2  C   UNL     1      -1.185  -0.710  -0.024  1.00  0.00    +0.325 A 
ATOM      3  N   UNL     1       0.010  -1.363  -0.002  1.00  0.00    -0.272 N 
ATOM      4  C   UNL     1       1.182  -0.670   0.022  1.00  0.00    +0.289 A 
ATOM      5  O   UNL     1       2.280  -1.287   0.042  1.00  0.00    -0.266 OA
ATOM      6  C   UNL     1       1.164   0.726   0.024  1.00  0.00    +0.204 A 
ATOM      7  F   UNL     1       2.317   1.440   0.048  1.00  0.00    -0.199 F 
ATOM      8  C   UNL     1      -0.069   1.376   0.001  1.00  0.00    +0.132 A 
ATOM      9  N   UNL     1      -1.219   0.652  -0.023  1.00  0.00    -0.311 N 
ATOM     10  H   UNL     1       0.028  -2.408  -0.004  1.00  0.00    +0.175 HD
ATOM     11  H   UNL     1      -2.137   1.151  -0.039  1.00  0.00    +0.171 HD
ENDROOT
TORSDOF 0
