REMARK SMILES Nc1ccn([C@@H]2O[C@H](CO)[C@@H](O)C2(F)F)c(=O)n1
REMARK SMILES IDX 6 1 7 2 8 3 11 4 13 5 14 6 15 7 5 8 2 9 18 10 3 11 16 12
REMARK SMILES IDX 4 13 17 14 1 15 9 18 10 19 12 21
REMARK H PARENT 1 16 1 17 10 20 12 22
ROOT
ATOM      1  C   UNL     1      -0.391  -0.174   0.682  1.00  0.00    +0.297 C 
ATOM      2  O   UNL     1      -1.207  -1.014  -0.100  1.00  0.00    -0.343 OA
ATOM      3  C   UNL     1      -2.500  -0.453  -0.068  1.00  0.00    +0.181 C 
ATOM      4  C   UNL     1      -2.384   1.055   0.235  1.00  0.00    +0.220 C 
ATOM      5  C   UNL     1      -0.906   1.256   0.541  1.00  0.00    +0.320 C 
ATOM      6  F   UNL     1      -0.692   1.975   1.712  1.00  0.00    -0.198 F 
ATOM      7  F   UNL     1      -0.293   1.920  -0.518  1.00  0.00    -0.198 F 
ENDROOT
BRANCH   1   8
ATOM      8  N   UNL     1       1.029  -0.292   0.285  1.00  0.00    -0.266 N 
ATOM      9  C   UNL     1       3.702  -0.429  -0.398  1.00  0.00    +0.130 A 
ATOM     10  N   UNL     1       2.738  -0.430  -1.354  1.00  0.00    -0.176 NA
ATOM     11  C   UNL     1       3.337  -0.352   0.944  1.00  0.00    +0.065 A 
ATOM     12  C   UNL     1       1.419  -0.363  -1.033  1.00  0.00    +0.351 A 
ATOM     13  C   UNL     1       1.984  -0.278   1.266  1.00  0.00    +0.097 A 
ATOM     14  O   UNL     1       0.568  -0.354  -1.962  1.00  0.00    -0.246 OA
BRANCH   9  15
ATOM     15  N   UNL     1       5.077  -0.490  -0.776  1.00  0.00    -0.383 N 
ATOM     16  H   UNL     1       5.830  -0.492  -0.052  1.00  0.00    +0.158 HD
ATOM     17  H   UNL     1       5.345  -0.507  -1.786  1.00  0.00    +0.158 HD
ENDBRANCH   9  15
ENDBRANCH   1   8
BRANCH   3  18
ATOM     18  C   UNL     1      -3.223  -0.739  -1.392  1.00  0.00    +0.191 C 
BRANCH  18  19
ATOM     19  O   UNL     1      -2.437  -0.342  -2.486  1.00  0.00    -0.394 OA
ATOM     20  H   UNL     1      -2.745   0.568  -2.760  1.00  0.00    +0.210 HD
ENDBRANCH  18  19
ENDBRANCH   3  18
BRANCH   4  21
ATOM     21  O   UNL     1      -3.215   1.432   1.315  1.00  0.00    -0.384 OA
ATOM     22  H   UNL     1      -2.941   0.904   2.118  1.00  0.00    +0.211 HD
ENDBRANCH   4  21
TORSDOF 5
