REMARK SMILES Cc1ccc(Br)cc1-c1cccc2c1CCc1cc(Cl)ccc1N2C(=O)CC1CCNCC1
REMARK SMILES IDX 25 1 26 2 24 3 13 4 9 5 14 6 10 7 11 8 12 9 8 10 2 11 3 12
REMARK SMILES IDX 7 13 4 14 5 15 1 16 6 17 15 18 23 20 17 21 22 22 18 23 21 24
REMARK SMILES IDX 19 25 20 26 16 27 27 29 28 30 29 31 33 32 30 33 32 34 31 35
REMARK H PARENT 31 36
REMARK Flexibility Score:   64.900
ROOT
ATOM      1  C   UNL     1      -1.995   0.800  -0.511  1.00  0.00    +0.231 C 
ATOM      2  O   UNL     1      -2.800   1.772  -0.565  1.00  0.00    -0.274 OA
ENDROOT
BRANCH   1   3
ATOM      3  N   UNL     1      -0.723   0.970   0.159  1.00  0.00    -0.280 N 
BRANCH   3   4
ATOM      4  C   UNL     1       0.178  -0.128   0.412  1.00  0.00    +0.053 A 
ATOM      5  C   UNL     1       2.339  -1.269   0.267  1.00  0.00    -0.013 A 
ATOM      6  C   UNL     1       1.515  -0.170  -0.103  1.00  0.00    -0.016 A 
ATOM      7  C   UNL     1       1.840  -2.292   1.087  1.00  0.00    +0.009 A 
ATOM      8  C   UNL     1       0.546  -2.232   1.582  1.00  0.00    +0.003 A 
ATOM      9  C   UNL     1      -0.268  -1.153   1.262  1.00  0.00    +0.027 A 
BRANCH   5  10
ATOM     10  C   UNL     1       3.760  -1.351  -0.134  1.00  0.00    -0.014 A 
ATOM     11  C   UNL     1       4.800  -0.907   0.722  1.00  0.00    -0.043 A 
ATOM     12  C   UNL     1       6.133  -1.012   0.295  1.00  0.00    +0.005 A 
ATOM     13  C   UNL     1       4.081  -1.908  -1.382  1.00  0.00    +0.024 A 
ATOM     14  C   UNL     1       6.440  -1.559  -0.952  1.00  0.00    +0.016 A 
ATOM     15  C   UNL     1       5.413  -1.999  -1.794  1.00  0.00    +0.018 A 
ATOM     16  C   UNL     1       4.528  -0.252   2.052  1.00  0.00    +0.045 C 
ATOM     17 Br   UNL     1       5.823  -2.751  -3.506  1.00  0.00    -0.051 Br
ENDBRANCH   5  10
BRANCH   6  18
ATOM     18  C   UNL     1       2.145   0.915  -0.987  1.00  0.00    +0.043 CG0
ATOM     19  G   UNL     1       1.249   2.046  -1.502  1.00  0.00    +0.000 G0
ENDBRANCH   6  18
ENDBRANCH   3   4
BRANCH   3  20
ATOM     20  C   UNL     1      -0.268   2.290   0.459  1.00  0.00    +0.052 A 
ATOM     21  C   UNL     1       0.706   2.863  -0.363  1.00  0.00    -0.022 A 
ATOM     22  C   UNL     1      -0.795   3.009   1.542  1.00  0.00    +0.028 A 
ATOM     23  C   UNL     1       1.173   4.157  -0.091  1.00  0.00    +0.026 A 
ATOM     24  C   UNL     1      -0.338   4.307   1.798  1.00  0.00    +0.022 A 
ATOM     25  C   UNL     1       0.643   4.882   0.981  1.00  0.00    +0.041 A 
ATOM     26 Cl   UNL     1       1.232   6.502   1.323  1.00  0.00    -0.084 Cl
BRANCH  21  27
ATOM     27  C   UNL     1       1.249   2.046  -1.502  1.00  0.00    +0.042 CG0
ATOM     28  G   UNL     1       2.145   0.915  -0.987  1.00  0.00    +0.000 G0
ENDBRANCH  21  27
ENDBRANCH   3  20
ENDBRANCH   1   3
BRANCH   1  29
ATOM     29  C   UNL     1      -2.345  -0.468  -1.262  1.00  0.00    +0.104 C 
BRANCH  29  30
ATOM     30  C   UNL     1      -3.717  -1.094  -0.901  1.00  0.00    +0.001 C 
ATOM     31  C   UNL     1      -4.922  -0.261  -1.379  1.00  0.00    +0.019 C 
ATOM     32  C   UNL     1      -3.867  -1.421   0.604  1.00  0.00    +0.019 C 
ATOM     33  C   UNL     1      -6.247  -1.039  -1.180  1.00  0.00    +0.081 C 
ATOM     34  C   UNL     1      -5.344  -1.633   1.016  1.00  0.00    +0.081 C 
ATOM     35  N   UNL     1      -6.178  -2.061  -0.117  1.00  0.00    -0.317 NA
ATOM     36  H   UNL     1      -5.781  -2.946  -0.513  1.00  0.00    +0.122 HD
ENDBRANCH  29  30
ENDBRANCH   1  29
TORSDOF 4
