REMARK SMILES CN1CCN(c2ccc(Nc3cc(-c4cc(N5CCCC5)c(F)cc4F)c(F)cn3)cc2F)CC1
REMARK SMILES IDX 10 1 9 3 6 4 32 5 7 6 31 7 8 8 33 9 5 10 2 11 3 12 35 13
REMARK SMILES IDX 4 14 34 15 1 16 11 17 30 18 12 19 29 20 13 21 27 22 28 23
REMARK SMILES IDX 14 24 25 25 15 26 24 27 16 28 22 29 26 30 23 31 17 32 18 33
REMARK SMILES IDX 21 34 19 35 20 36
REMARK H PARENT 10 2
ROOT
ATOM      1  N   UNL     1       0.530   1.087  -0.427  1.00  0.00    -0.340 N 
ATOM      2  H   UNL     1       0.179   2.039  -0.169  1.00  0.00    +0.168 HD
ENDROOT
BRANCH   1   3
ATOM      3  C   UNL     1       1.915   0.808  -0.157  1.00  0.00    +0.043 A 
ATOM      4  C   UNL     1       4.648   0.374   0.367  1.00  0.00    +0.073 A 
ATOM      5  C   UNL     1       4.004  -0.341  -0.656  1.00  0.00    +0.148 A 
ATOM      6  C   UNL     1       3.925   1.309   1.116  1.00  0.00    +0.031 A 
ATOM      7  C   UNL     1       2.649  -0.114  -0.927  1.00  0.00    +0.067 A 
ATOM      8  C   UNL     1       2.570   1.524   0.856  1.00  0.00    +0.028 A 
ATOM      9  F   UNL     1       4.699  -1.228  -1.412  1.00  0.00    -0.205 F 
BRANCH   4  10
ATOM     10  N   UNL     1       6.042   0.171   0.623  1.00  0.00    -0.367 N 
ATOM     11  N   UNL     1       8.879  -0.428   0.699  1.00  0.00    -0.303 NA
ATOM     12  C   UNL     1       7.836  -1.474   0.543  1.00  0.00    +0.105 C 
ATOM     13  C   UNL     1       8.365   0.946   0.933  1.00  0.00    +0.105 C 
ATOM     14  C   UNL     1       6.513  -1.088   1.208  1.00  0.00    +0.132 C 
ATOM     15  C   UNL     1       7.008   1.212   0.262  1.00  0.00    +0.132 C 
ATOM     16  C   UNL     1       9.819  -0.459  -0.435  1.00  0.00    +0.105 C 
ENDBRANCH   4  10
ENDBRANCH   1   3
BRANCH   1  17
ATOM     17  C   UNL     1      -0.443   0.115  -0.846  1.00  0.00    +0.131 A 
ATOM     18  N   UNL     1      -0.125  -1.210  -0.932  1.00  0.00    -0.236 NA
ATOM     19  C   UNL     1      -1.760   0.522  -1.106  1.00  0.00    +0.059 A 
ATOM     20  C   UNL     1      -1.042  -2.153  -1.274  1.00  0.00    +0.153 A 
ATOM     21  C   UNL     1      -2.730  -0.430  -1.435  1.00  0.00    +0.026 A 
ATOM     22  C   UNL     1      -2.367  -1.782  -1.521  1.00  0.00    +0.149 A 
ATOM     23  F   UNL     1      -3.282  -2.728  -1.850  1.00  0.00    -0.205 F 
BRANCH  21  24
ATOM     24  C   UNL     1      -4.120  -0.009  -1.663  1.00  0.00    +0.023 A 
ATOM     25  C   UNL     1      -4.489   0.625  -2.859  1.00  0.00    +0.134 A 
ATOM     26  C   UNL     1      -5.077  -0.201  -0.654  1.00  0.00    +0.041 A 
ATOM     27  C   UNL     1      -5.807   1.054  -3.042  1.00  0.00    +0.081 A 
ATOM     28  C   UNL     1      -6.396   0.239  -0.831  1.00  0.00    +0.074 A 
ATOM     29  C   UNL     1      -6.762   0.865  -2.036  1.00  0.00    +0.149 A 
ATOM     30  F   UNL     1      -3.578   0.822  -3.845  1.00  0.00    -0.206 F 
ATOM     31  F   UNL     1      -8.020   1.333  -2.224  1.00  0.00    -0.205 F 
BRANCH  28  32
ATOM     32  N   UNL     1      -7.351   0.071   0.226  1.00  0.00    -0.369 N 
ATOM     33  C   UNL     1      -8.593  -0.659   0.068  1.00  0.00    +0.116 C 
ATOM     34  C   UNL     1      -7.136   0.560   1.576  1.00  0.00    +0.116 C 
ATOM     35  C   UNL     1      -9.213  -0.731   1.458  1.00  0.00    +0.023 C 
ATOM     36  C   UNL     1      -8.397   0.208   2.350  1.00  0.00    +0.023 C 
ENDBRANCH  28  32
ENDBRANCH  21  24
ENDBRANCH   1  17
TORSDOF 5
