REMARK SMILES NC(=O)c1ccc(-n2nc(C3CCNC3)c3ccccc32)cc1
REMARK SMILES IDX 8 1 9 2 10 3 16 4 17 5 18 6 19 7 20 8 21 9 7 10 4 11 5 12
REMARK SMILES IDX 23 13 6 14 22 15 2 16 1 17 3 18 11 21 12 22 15 23 13 24
REMARK SMILES IDX 14 25
REMARK H PARENT 1 19 1 20 14 26
ROOT
ATOM      1  N   UNL     1       0.313  -0.294   0.385  1.00  0.00    -0.233 N 
ATOM      2  N   UNL     1      -0.634   0.628   0.523  1.00  0.00    -0.171 NA
ATOM      3  C   UNL     1      -1.835  -0.003   0.528  1.00  0.00    +0.075 A 
ATOM      4  C   UNL     1      -1.621  -1.360   0.378  1.00  0.00    +0.024 A 
ATOM      5  C   UNL     1      -2.489  -2.449   0.306  1.00  0.00    +0.012 A 
ATOM      6  C   UNL     1      -1.919  -3.725   0.148  1.00  0.00    +0.001 A 
ATOM      7  C   UNL     1      -0.516  -3.878   0.068  1.00  0.00    +0.002 A 
ATOM      8  C   UNL     1       0.331  -2.756   0.123  1.00  0.00    +0.029 A 
ATOM      9  C   UNL     1      -0.266  -1.505   0.285  1.00  0.00    +0.074 A 
ENDROOT
BRANCH   1  10
ATOM     10  C   UNL     1       1.708   0.006   0.303  1.00  0.00    +0.065 A 
ATOM     11  C   UNL     1       4.447   0.658   0.132  1.00  0.00    +0.039 A 
ATOM     12  C   UNL     1       3.752   0.789   1.352  1.00  0.00    +0.016 A 
ATOM     13  C   UNL     1       3.740   0.207  -1.006  1.00  0.00    +0.016 A 
ATOM     14  C   UNL     1       2.393   0.471   1.431  1.00  0.00    +0.029 A 
ATOM     15  C   UNL     1       2.385  -0.123  -0.915  1.00  0.00    +0.029 A 
BRANCH  11  16
ATOM     16  C   UNL     1       5.884   1.038   0.059  1.00  0.00    +0.248 C 
ATOM     17  N   UNL     1       6.698   0.704  -1.070  1.00  0.00    -0.366 N 
ATOM     18  O   UNL     1       6.410   1.678   1.014  1.00  0.00    -0.270 OA
ATOM     19  H   UNL     1       6.400   0.016  -1.794  1.00  0.00    +0.159 HD
ATOM     20  H   UNL     1       7.662   1.105  -1.144  1.00  0.00    +0.159 HD
ENDBRANCH  11  16
ENDBRANCH   1  10
BRANCH   3  21
ATOM     21  C   UNL     1      -3.175   0.687   0.572  1.00  0.00    +0.056 C 
ATOM     22  C   UNL     1      -3.830   0.748  -0.790  1.00  0.00    +0.026 C 
ATOM     23  C   UNL     1      -3.116   2.150   0.993  1.00  0.00    +0.091 C 
ATOM     24  C   UNL     1      -4.727   1.974  -0.718  1.00  0.00    +0.081 C 
ATOM     25  N   UNL     1      -4.277   2.813   0.397  1.00  0.00    -0.316 NA
ATOM     26  H   UNL     1      -3.979   3.747   0.026  1.00  0.00    +0.122 HD
ENDBRANCH   3  21
TORSDOF 3
