REMARK SMILES O=C(c1cc(Cc2c3ccccc3nn2C(=O)O)ccc1F)N1CCN(C(=O)C2CC2)CC1
REMARK SMILES IDX 7 1 8 2 9 3 10 4 11 5 12 6 13 7 14 8 15 9 6 10 5 11 3 12
REMARK SMILES IDX 4 13 21 14 20 15 19 16 22 17 2 18 1 19 23 20 24 21 33 22
REMARK SMILES IDX 25 23 32 24 26 25 27 26 28 27 29 28 30 29 31 30 16 31 17 32
REMARK SMILES IDX 18 33
REMARK H PARENT 18 34
ROOT
ATOM      1  C   UNL     1      -4.335  -0.259   0.717  1.00  0.00    +0.063 A 
ATOM      2  C   UNL     1      -3.631   0.862   1.110  1.00  0.00    +0.024 A 
ATOM      3  C   UNL     1      -2.515   1.036   1.927  1.00  0.00    +0.012 A 
ATOM      4  C   UNL     1      -2.025   2.344   2.095  1.00  0.00    +0.001 A 
ATOM      5  C   UNL     1      -2.643   3.431   1.435  1.00  0.00    +0.002 A 
ATOM      6  C   UNL     1      -3.766   3.219   0.614  1.00  0.00    +0.031 A 
ATOM      7  C   UNL     1      -4.229   1.913   0.474  1.00  0.00    +0.093 A 
ATOM      8  N   UNL     1      -5.252   1.483  -0.280  1.00  0.00    -0.162 NA
ATOM      9  N   UNL     1      -5.319   0.161  -0.134  1.00  0.00    -0.168 N 
ENDROOT
BRANCH   1  10
ATOM     10  C   UNL     1      -3.968  -1.677   1.078  1.00  0.00    +0.092 C 
BRANCH  10  11
ATOM     11  C   UNL     1      -2.801  -2.143   0.244  1.00  0.00    -0.041 A 
ATOM     12  C   UNL     1      -0.411  -2.567   0.005  1.00  0.00    +0.076 A 
ATOM     13  C   UNL     1      -1.519  -2.254   0.809  1.00  0.00    +0.021 A 
ATOM     14  C   UNL     1      -0.596  -2.830  -1.360  1.00  0.00    +0.135 A 
ATOM     15  C   UNL     1      -1.875  -2.757  -1.917  1.00  0.00    +0.040 A 
ATOM     16  C   UNL     1      -2.969  -2.402  -1.124  1.00  0.00    +0.007 A 
ATOM     17  F   UNL     1       0.454  -3.170  -2.148  1.00  0.00    -0.206 F 
BRANCH  12  18
ATOM     18  C   UNL     1       0.938  -2.578   0.604  1.00  0.00    +0.256 C 
ATOM     19  O   UNL     1       1.191  -3.416   1.514  1.00  0.00    -0.269 OA
ATOM     20  N   UNL     1       1.948  -1.633   0.190  1.00  0.00    -0.335 N 
ATOM     21  C   UNL     1       3.316  -1.755   0.714  1.00  0.00    +0.141 C 
ATOM     22  C   UNL     1       1.567  -0.444  -0.594  1.00  0.00    +0.141 C 
ATOM     23  C   UNL     1       4.338  -1.180  -0.271  1.00  0.00    +0.141 C 
ATOM     24  C   UNL     1       2.604   0.673  -0.485  1.00  0.00    +0.141 C 
ATOM     25  N   UNL     1       3.952   0.155  -0.755  1.00  0.00    -0.339 N 
ATOM     26  C   UNL     1       4.936   0.948  -1.452  1.00  0.00    +0.225 C 
ATOM     27  O   UNL     1       5.887   0.368  -2.040  1.00  0.00    -0.275 OA
BRANCH  26  28
ATOM     28  C   UNL     1       4.862   2.459  -1.453  1.00  0.00    +0.079 C 
ATOM     29  C   UNL     1       5.857   3.209  -2.329  1.00  0.00    +0.014 C 
ATOM     30  C   UNL     1       6.083   3.122  -0.828  1.00  0.00    +0.014 C 
ENDBRANCH  26  28
ENDBRANCH  12  18
ENDBRANCH  10  11
ENDBRANCH   1  10
BRANCH   9  31
ATOM     31  C   UNL     1      -6.303  -0.617  -0.836  1.00  0.00    +0.432 C 
ATOM     32  O   UNL     1      -7.083  -0.044  -1.645  1.00  0.00    -0.222 OA
BRANCH  31  33
ATOM     33  O   UNL     1      -6.423  -1.988  -0.647  1.00  0.00    -0.463 OA
ATOM     34  H   UNL     1      -7.129  -2.525  -1.136  1.00  0.00    +0.298 HD
ENDBRANCH  31  33
ENDBRANCH   9  31
TORSDOF 6
