REMARK SMILES CC(=O)O[C@H]1C(=O)[C@@]2(C)[C@H]([C@H](OC(=O)c3ccccc3)[C@]3(O)C[C@H](OC(=O)[C@H](O)[C@@H](NC(=O)c4ccccc4)c4ccccc4)C(C)=C1C3(C)C)[C@]1(OC(C)=O)CO[C@@H]1C[C@@H]2O
REMARK SMILES IDX 47 1 46 2 48 3 49 4 21 5 23 6 24 7 50 8 51 9 5 10 6 11 7 12
REMARK SMILES IDX 8 13 61 14 10 15 60 16 52 17 59 18 57 19 58 20 9 21 62 23
REMARK SMILES IDX 53 25 54 26 56 27 55 28 4 29 2 30 3 31 1 32 25 33 26 34
REMARK SMILES IDX 27 35 28 36 29 37 30 39 31 40 32 41 33 42 34 44 35 45 39 46
REMARK SMILES IDX 36 47 38 48 37 49 40 50 41 51 45 52 42 53 44 54 43 55 11 56
REMARK SMILES IDX 12 58 13 59 14 60 15 61 16 62 20 63 17 64 19 65 18 66 22 67
REMARK H PARENT 62 24 29 38 31 43 22 68
REMARK Flexibility Score:  233.900
ROOT
ATOM      1  C   UNL     1       1.847  -2.411  -0.026  1.00  0.00    +0.043 C 
ATOM      2  C   UNL     1       0.812  -1.468   0.560  1.00  0.00    -0.029 C 
ATOM      3  C   UNL     1      -0.272  -1.966   1.101  1.00  0.00    -0.011 C 
ATOM      4  C   UNL     1      -0.971  -1.085   2.085  1.00  0.00    +0.023 C 
ATOM      5  C   UNL     1      -1.442   0.180   1.421  1.00  0.00    +0.115 C 
ATOM      6  C   UNL     1      -0.328   0.796   0.494  1.00  0.00    +0.090 C 
ATOM      7  C   UNL     1       1.016   0.032   0.508  1.00  0.00    +0.205 C 
ATOM      8  C   UNL     1      -2.038  -1.786   2.913  1.00  0.00    +0.019 C 
ATOM      9  C   UNL     1       0.117  -0.738   3.206  1.00  0.00    +0.019 C 
ENDROOT
BRANCH   3  10
ATOM     10  C   UNL     1      -0.860  -3.067   0.301  1.00  0.00    +0.270 C 
BRANCH  10  11
ATOM     11  C   UNL     1      -1.582  -2.347  -0.742  1.00  0.00    +0.186 C 
ATOM     12  O   UNL     1      -0.871  -2.014  -1.617  1.00  0.00    -0.294 OA
BRANCH  11  13
ATOM     13  C   UNL     1      -3.018  -1.885  -0.899  1.00  0.00    +0.067 C 
ATOM     14  C   UNL     1      -3.213  -2.120  -2.411  1.00  0.00    +0.131 C 
ATOM     15  C   UNL     1      -3.005  -0.400  -0.636  1.00  0.00    +0.098 CG0
ATOM     16  C   UNL     1      -4.495  -1.563  -2.930  1.00  0.00    +0.069 C 
ATOM     17  C   UNL     1      -4.108   0.384  -1.226  1.00  0.00    +0.169 C 
ATOM     18  C   UNL     1      -4.771  -0.144  -2.459  1.00  0.00    +0.168 C 
ATOM     19  C   UNL     1      -5.498   0.369  -0.622  1.00  0.00    +0.212 C 
ATOM     20  O   UNL     1      -6.037  -0.044  -1.834  1.00  0.00    -0.370 OA
ATOM     21  C   UNL     1      -4.030  -2.777  -0.192  1.00  0.00    +0.023 C 
ATOM     22  G   UNL     1      -2.826   0.045   0.812  1.00  0.00    +0.000 G0
BRANCH  14  23
ATOM     23  O   UNL     1      -3.179  -3.503  -2.677  1.00  0.00    -0.392 OA
ATOM     24  H   UNL     1      -2.383  -3.951  -2.269  1.00  0.00    +0.210 HD
ENDBRANCH  14  23
BRANCH  17  25
ATOM     25  O   UNL     1      -3.661   1.694  -1.421  1.00  0.00    -0.454 OA
BRANCH  25  26
ATOM     26  C   UNL     1      -4.419   2.724  -2.010  1.00  0.00    +0.303 C 
ATOM     27  O   UNL     1      -5.588   2.524  -2.407  1.00  0.00    -0.253 OA
ATOM     28  C   UNL     1      -3.850   4.068  -2.183  1.00  0.00    +0.139 C 
ENDBRANCH  25  26
ENDBRANCH  17  25
ENDBRANCH  11  13
ENDBRANCH  10  11
BRANCH  10  29
ATOM     29  O   UNL     1      -1.533  -4.048   1.033  1.00  0.00    -0.450 OA
BRANCH  29  30
ATOM     30  C   UNL     1      -1.087  -5.361   1.131  1.00  0.00    +0.303 C 
ATOM     31  O   UNL     1      -0.080  -5.758   0.488  1.00  0.00    -0.253 OA
ATOM     32  C   UNL     1      -1.831  -6.339   1.976  1.00  0.00    +0.139 C 
ENDBRANCH  29  30
ENDBRANCH  10  29
ENDBRANCH   3  10
BRANCH   7  33
ATOM     33  O   UNL     1       1.684   0.426  -0.672  1.00  0.00    -0.456 OA
BRANCH  33  34
ATOM     34  C   UNL     1       2.943   1.070  -0.555  1.00  0.00    +0.338 C 
ATOM     35  O   UNL     1       3.443   1.280   0.542  1.00  0.00    -0.249 OA
BRANCH  34  36
ATOM     36  C   UNL     1       3.604   1.580  -1.826  1.00  0.00    +0.251 C 
BRANCH  36  37
ATOM     37  O   UNL     1       2.798   1.258  -2.905  1.00  0.00    -0.379 OA
ATOM     38  H   UNL     1       2.829   1.982  -3.587  1.00  0.00    +0.211 HD
ENDBRANCH  36  37
BRANCH  36  39
ATOM     39  C   UNL     1       5.022   0.956  -2.039  1.00  0.00    +0.153 C 
BRANCH  39  40
ATOM     40  N   UNL     1       5.948   1.170  -0.902  1.00  0.00    -0.342 N 
ATOM     41  C   UNL     1       7.125   1.929  -1.116  1.00  0.00    +0.251 C 
ATOM     42  O   UNL     1       7.363   2.442  -2.260  1.00  0.00    -0.269 OA
ATOM     43  H   UNL     1       5.747   0.736   0.003  1.00  0.00    +0.164 HD
BRANCH  41  44
ATOM     44  C   UNL     1       8.115   2.167  -0.068  1.00  0.00    +0.039 A 
ATOM     45  C   UNL     1       9.242   2.935  -0.362  1.00  0.00    +0.014 A 
ATOM     46  C   UNL     1       7.975   1.658   1.229  1.00  0.00    +0.014 A 
ATOM     47  C   UNL     1      10.208   3.194   0.600  1.00  0.00    +0.001 A 
ATOM     48  C   UNL     1       8.957   1.927   2.185  1.00  0.00    +0.001 A 
ATOM     49  C   UNL     1      10.076   2.693   1.879  1.00  0.00    +0.000 A 
ENDBRANCH  41  44
ENDBRANCH  39  40
BRANCH  39  50
ATOM     50  C   UNL     1       4.979  -0.468  -2.484  1.00  0.00    -0.022 A 
ATOM     51  C   UNL     1       4.908  -0.705  -3.871  1.00  0.00    +0.006 A 
ATOM     52  C   UNL     1       5.038  -1.529  -1.625  1.00  0.00    +0.006 A 
ATOM     53  C   UNL     1       4.898  -2.009  -4.366  1.00  0.00    +0.000 A 
ATOM     54  C   UNL     1       5.029  -2.839  -2.109  1.00  0.00    +0.000 A 
ATOM     55  C   UNL     1       4.954  -3.074  -3.498  1.00  0.00    +0.000 A 
ENDBRANCH  39  50
ENDBRANCH  36  39
ENDBRANCH  34  36
ENDBRANCH  33  34
ENDBRANCH   7  33
BRANCH   5  56
ATOM     56  C   UNL     1      -2.826   0.045   0.812  1.00  0.00    +0.218 CG0
ATOM     57  G   UNL     1      -3.005  -0.400  -0.636  1.00  0.00    +0.000 G0
BRANCH  56  58
ATOM     58  O   UNL     1      -3.432   1.301   0.961  1.00  0.00    -0.455 OA
BRANCH  58  59
ATOM     59  C   UNL     1      -4.386   1.546   1.938  1.00  0.00    +0.338 C 
ATOM     60  O   UNL     1      -4.761   0.612   2.689  1.00  0.00    -0.246 OA
BRANCH  59  61
ATOM     61  C   UNL     1      -4.994   2.859   2.104  1.00  0.00    +0.060 A 
ATOM     62  C   UNL     1      -4.566   3.906   1.330  1.00  0.00    +0.015 A 
ATOM     63  C   UNL     1      -6.015   3.045   3.037  1.00  0.00    +0.015 A 
ATOM     64  C   UNL     1      -5.139   5.189   1.450  1.00  0.00    +0.001 A 
ATOM     65  C   UNL     1      -6.587   4.317   3.162  1.00  0.00    +0.001 A 
ATOM     66  C   UNL     1      -6.139   5.378   2.364  1.00  0.00    +0.000 A 
ENDBRANCH  59  61
ENDBRANCH  58  59
ENDBRANCH  56  58
ENDBRANCH   5  56
BRANCH   5  67
ATOM     67  O   UNL     1      -1.607   1.087   2.488  1.00  0.00    -0.385 OA
ATOM     68  H   UNL     1      -1.828   2.012   2.237  1.00  0.00    +0.211 HD
ENDBRANCH   5  67
TORSDOF 17
