REMARK SMILES Cc1ccccc1CCNCc1ccc(/C=C/C(=O)NO)cc1
REMARK SMILES IDX 11 1 10 2 9 4 8 5 7 6 2 7 3 8 6 9 4 10 5 11 1 12 12 13 13 14
REMARK SMILES IDX 23 15 14 16 22 17 15 18 16 19 17 20 18 21 19 22 20 23 21 25
REMARK H PARENT 10 3 20 24 21 26
ROOT
ATOM      1  C   UNL     1      -0.619  -0.107  -1.648  1.00  0.00    +0.116 C 
ENDROOT
BRANCH   1   2
ATOM      2  N   UNL     1      -1.521  -0.881  -0.776  1.00  0.00    -0.312 NA
ATOM      3  H   UNL     1      -1.139  -1.851  -0.675  1.00  0.00    +0.123 HD
BRANCH   2   4
ATOM      4  C   UNL     1      -1.684  -0.303   0.568  1.00  0.00    +0.086 C 
BRANCH   4   5
ATOM      5  C   UNL     1      -2.620   0.914   0.575  1.00  0.00    +0.051 C 
BRANCH   5   6
ATOM      6  C   UNL     1      -3.982   0.596  -0.009  1.00  0.00    -0.044 A 
ATOM      7  C   UNL     1      -5.036   0.042   0.766  1.00  0.00    -0.048 A 
ATOM      8  C   UNL     1      -6.258  -0.269   0.138  1.00  0.00    +0.004 A 
ATOM      9  C   UNL     1      -4.194   0.835  -1.380  1.00  0.00    +0.004 A 
ATOM     10  C   UNL     1      -6.445  -0.025  -1.224  1.00  0.00    +0.000 A 
ATOM     11  C   UNL     1      -5.415   0.529  -1.980  1.00  0.00    +0.000 A 
ATOM     12  C   UNL     1      -4.879  -0.246   2.239  1.00  0.00    +0.044 C 
ENDBRANCH   5   6
ENDBRANCH   4   5
ENDBRANCH   2   4
ENDBRANCH   1   2
BRANCH   1  13
ATOM     13  C   UNL     1       0.804  -0.080  -1.141  1.00  0.00    -0.034 A 
ATOM     14  C   UNL     1       1.586  -1.242  -1.156  1.00  0.00    +0.005 A 
ATOM     15  C   UNL     1       1.353   1.107  -0.638  1.00  0.00    +0.005 A 
ATOM     16  C   UNL     1       2.899  -1.219  -0.675  1.00  0.00    +0.008 A 
ATOM     17  C   UNL     1       2.666   1.135  -0.163  1.00  0.00    +0.008 A 
ATOM     18  C   UNL     1       3.460  -0.023  -0.184  1.00  0.00    -0.025 A 
BRANCH  18  19
ATOM     19  C   UNL     1       4.845   0.059   0.347  1.00  0.00    +0.014 C 
ATOM     20  C   UNL     1       5.812  -0.827   0.060  1.00  0.00    +0.074 C 
BRANCH  20  21
ATOM     21  C   UNL     1       7.190  -0.735   0.587  1.00  0.00    +0.267 C 
ATOM     22  O   UNL     1       7.937  -1.746   0.490  1.00  0.00    -0.268 OA
ATOM     23  N   UNL     1       7.713   0.465   1.174  1.00  0.00    -0.234 N 
ATOM     24  H   UNL     1       7.183   1.363   1.145  1.00  0.00    +0.199 HD
BRANCH  23  25
ATOM     25  O   UNL     1       8.943   0.465   1.740  1.00  0.00    -0.288 OA
ATOM     26  H   UNL     1       9.562   0.706   1.005  1.00  0.00    +0.246 HD
ENDBRANCH  23  25
ENDBRANCH  20  21
ENDBRANCH  18  19
ENDBRANCH   1  13
TORSDOF 8
