REMARK SMILES CC(C)N1CCN(c2ncc(Nc3cc(-c4ccccn4)ccn3)c(-c3ccc(F)cc3)n2)CC1
REMARK SMILES IDX 8 1 9 2 10 3 11 4 25 5 33 6 7 7 4 8 5 9 35 10 6 11 34 12
REMARK SMILES IDX 2 13 1 14 3 15 26 16 27 17 32 18 28 19 31 20 29 21 30 22
REMARK SMILES IDX 12 23 13 25 24 26 14 27 23 28 15 29 22 30 16 31 17 32 21 33
REMARK SMILES IDX 18 34 20 35 19 36
REMARK H PARENT 12 24
ROOT
ATOM      1  C   UNL     1      -1.285  -0.095   0.149  1.00  0.00    +0.226 A 
ATOM      2  N   UNL     1      -0.447   0.741  -0.525  1.00  0.00    -0.219 NA
ATOM      3  C   UNL     1       0.794   0.343  -0.909  1.00  0.00    +0.143 A 
ATOM      4  C   UNL     1       1.234  -0.960  -0.637  1.00  0.00    +0.085 A 
ATOM      5  C   UNL     1       0.372  -1.801   0.101  1.00  0.00    +0.099 A 
ATOM      6  N   UNL     1      -0.860  -1.350   0.455  1.00  0.00    -0.211 NA
ENDROOT
BRANCH   1   7
ATOM      7  N   UNL     1      -2.621   0.320   0.500  1.00  0.00    -0.338 N 
ATOM      8  N   UNL     1      -5.386   0.572   0.257  1.00  0.00    -0.297 NA
ATOM      9  C   UNL     1      -4.856   0.017   1.517  1.00  0.00    +0.106 C 
ATOM     10  C   UNL     1      -4.549   1.661  -0.313  1.00  0.00    +0.106 C 
ATOM     11  C   UNL     1      -3.482  -0.599   1.257  1.00  0.00    +0.135 C 
ATOM     12  C   UNL     1      -3.100   1.683   0.219  1.00  0.00    +0.135 C 
BRANCH   8  13
ATOM     13  C   UNL     1      -6.848   0.848   0.311  1.00  0.00    +0.050 C 
ATOM     14  C   UNL     1      -7.406   1.165  -1.083  1.00  0.00    +0.024 C 
ATOM     15  C   UNL     1      -7.237   1.942   1.327  1.00  0.00    +0.024 C 
ENDBRANCH   8  13
ENDBRANCH   1   7
BRANCH   5  16
ATOM     16  C   UNL     1       0.745  -3.183   0.469  1.00  0.00    +0.003 A 
ATOM     17  C   UNL     1       1.981  -3.457   1.081  1.00  0.00    +0.013 A 
ATOM     18  C   UNL     1      -0.156  -4.236   0.240  1.00  0.00    +0.013 A 
ATOM     19  C   UNL     1       2.324  -4.770   1.420  1.00  0.00    +0.040 A 
ATOM     20  C   UNL     1       0.189  -5.547   0.580  1.00  0.00    +0.040 A 
ATOM     21  C   UNL     1       1.430  -5.814   1.168  1.00  0.00    +0.123 A 
ATOM     22  F   UNL     1       1.764  -7.087   1.494  1.00  0.00    -0.207 F 
ENDBRANCH   5  16
BRANCH   4  23
ATOM     23  N   UNL     1       2.443  -1.478  -1.226  1.00  0.00    -0.337 N 
ATOM     24  H   UNL     1       2.472  -2.494  -1.466  1.00  0.00    +0.168 HD
BRANCH  23  25
ATOM     25  C   UNL     1       3.494  -0.672  -1.771  1.00  0.00    +0.131 A 
ATOM     26  N   UNL     1       3.948  -0.944  -3.028  1.00  0.00    -0.239 NA
ATOM     27  C   UNL     1       4.108   0.337  -1.012  1.00  0.00    +0.057 A 
ATOM     28  C   UNL     1       4.972  -0.251  -3.590  1.00  0.00    +0.114 A 
ATOM     29  C   UNL     1       5.194   1.054  -1.557  1.00  0.00    +0.005 A 
ATOM     30  C   UNL     1       5.609   0.757  -2.869  1.00  0.00    +0.030 A 
BRANCH  29  31
ATOM     31  C   UNL     1       5.919   2.102  -0.785  1.00  0.00    +0.070 A 
ATOM     32  C   UNL     1       5.981   2.081   0.622  1.00  0.00    +0.029 A 
ATOM     33  N   UNL     1       6.598   3.076  -1.460  1.00  0.00    -0.256 NA
ATOM     34  C   UNL     1       6.713   3.064   1.294  1.00  0.00    +0.004 A 
ATOM     35  C   UNL     1       7.318   4.039  -0.823  1.00  0.00    +0.111 A 
ATOM     36  C   UNL     1       7.384   4.053   0.572  1.00  0.00    +0.020 A 
ENDBRANCH  29  31
ENDBRANCH  23  25
ENDBRANCH   4  23
TORSDOF 6
