REMARK SMILES CC(C)Nc1nc(N)c(S(=O)(=O)c2cccnc2)c(-c2c(Cl)cccc2Cl)n1
REMARK SMILES IDX 5 1 6 2 7 3 9 4 19 5 28 6 4 7 2 9 1 10 3 11 8 12 20 15 21 16
REMARK SMILES IDX 26 17 23 18 25 19 24 20 22 21 27 22 10 23 11 24 12 25 13 26
REMARK SMILES IDX 18 27 14 28 17 29 15 30 16 31
REMARK H PARENT 4 8 8 13 8 14
ROOT
ATOM      1  C   UNL     1       1.773  -0.875   1.306  1.00  0.00    +0.225 A 
ATOM      2  N   UNL     1       0.833  -1.321   2.173  1.00  0.00    -0.195 NA
ATOM      3  C   UNL     1      -0.446  -0.864   2.151  1.00  0.00    +0.148 A 
ATOM      4  C   UNL     1      -0.828   0.110   1.188  1.00  0.00    +0.140 A 
ATOM      5  C   UNL     1       0.173   0.532   0.274  1.00  0.00    +0.100 A 
ATOM      6  N   UNL     1       1.432   0.036   0.365  1.00  0.00    -0.211 NA
ENDROOT
BRANCH   1   7
ATOM      7  N   UNL     1       3.111  -1.385   1.383  1.00  0.00    -0.352 N 
ATOM      8  H   UNL     1       3.301  -2.167   2.049  1.00  0.00    +0.163 HD
BRANCH   7   9
ATOM      9  C   UNL     1       4.206  -0.843   0.574  1.00  0.00    +0.076 C 
ATOM     10  C   UNL     1       4.652   0.510   1.136  1.00  0.00    +0.030 C 
ATOM     11  C   UNL     1       5.382  -1.827   0.543  1.00  0.00    +0.030 C 
ENDBRANCH   7   9
ENDBRANCH   1   7
BRANCH   3  12
ATOM     12  N   UNL     1      -1.359  -1.422   3.102  1.00  0.00    -0.382 N 
ATOM     13  H   UNL     1      -1.080  -2.280   3.628  1.00  0.00    +0.158 HD
ATOM     14  H   UNL     1      -2.212  -0.928   3.437  1.00  0.00    +0.158 HD
ENDBRANCH   3  12
BRANCH   5  15
ATOM     15  C   UNL     1      -0.097   1.461  -0.836  1.00  0.00    +0.039 A 
ATOM     16  C   UNL     1      -0.484   0.962  -2.097  1.00  0.00    +0.052 A 
ATOM     17  C   UNL     1       0.081   2.849  -0.662  1.00  0.00    +0.052 A 
ATOM     18  C   UNL     1      -0.742   1.850  -3.148  1.00  0.00    +0.021 A 
ATOM     19  C   UNL     1      -0.177   3.723  -1.724  1.00  0.00    +0.021 A 
ATOM     20  C   UNL     1      -0.595   3.227  -2.961  1.00  0.00    +0.003 A 
ATOM     21 Cl   UNL     1      -0.620  -0.770  -2.400  1.00  0.00    -0.084 Cl
ATOM     22 Cl   UNL     1       0.577   3.521   0.888  1.00  0.00    -0.084 Cl
ENDBRANCH   5  15
BRANCH   4  23
ATOM     23  S   UNL     1      -2.518   0.687   1.029  1.00  0.00    +0.213 S 
ATOM     24  O   UNL     1      -2.560   2.035   0.366  1.00  0.00    -0.218 OA
ATOM     25  O   UNL     1      -3.182   0.855   2.364  1.00  0.00    -0.218 OA
BRANCH  23  26
ATOM     26  C   UNL     1      -3.434  -0.462   0.055  1.00  0.00    +0.090 A 
ATOM     27  C   UNL     1      -3.782  -1.716   0.574  1.00  0.00    +0.131 A 
ATOM     28  C   UNL     1      -3.796  -0.154  -1.262  1.00  0.00    +0.024 A 
ATOM     29  N   UNL     1      -4.448  -2.615  -0.201  1.00  0.00    -0.263 NA
ATOM     30  C   UNL     1      -4.478  -1.092  -2.037  1.00  0.00    +0.021 A 
ATOM     31  C   UNL     1      -4.799  -2.331  -1.483  1.00  0.00    +0.111 A 
ENDBRANCH  23  26
ENDBRANCH   4  23
TORSDOF 6
