REMARK SMILES CNCc1ccc(-c2ccc3c4c(c(C(N)=O)[nH]c24)CN3)cc1
REMARK SMILES IDX 4 1 5 2 6 3 7 4 22 5 23 6 3 7 2 8 1 9 8 11 19 12 9 13 12 14
REMARK SMILES IDX 18 15 10 16 11 17 13 18 14 19 21 20 20 21 15 24 17 25 16 26
REMARK H PARENT 2 10 18 22 21 23 16 27 16 28
ROOT
ATOM      1  C   UNL     1       3.438  -0.010   0.411  1.00  0.00    -0.034 A 
ATOM      2  C   UNL     1       2.690  -0.838  -0.437  1.00  0.00    +0.006 A 
ATOM      3  C   UNL     1       1.326  -1.038  -0.205  1.00  0.00    +0.009 A 
ATOM      4  C   UNL     1       0.682  -0.397   0.869  1.00  0.00    -0.016 A 
ATOM      5  C   UNL     1       1.429   0.467   1.693  1.00  0.00    +0.009 A 
ATOM      6  C   UNL     1       2.794   0.661   1.461  1.00  0.00    +0.006 A 
ENDROOT
BRANCH   1   7
ATOM      7  C   UNL     1       4.913   0.170   0.178  1.00  0.00    +0.116 C 
BRANCH   7   8
ATOM      8  N   UNL     1       5.127   1.173  -0.867  1.00  0.00    -0.316 NA
ATOM      9  C   UNL     1       6.538   1.212  -1.253  1.00  0.00    +0.101 C 
ATOM     10  H   UNL     1       4.883   2.111  -0.467  1.00  0.00    +0.122 HD
ENDBRANCH   7   8
ENDBRANCH   1   7
BRANCH   4  11
ATOM     11  C   UNL     1      -0.751  -0.670   1.150  1.00  0.00    +0.006 A 
ATOM     12  C   UNL     1      -1.691  -0.816   0.109  1.00  0.00    +0.056 A 
ATOM     13  C   UNL     1      -1.245  -0.751   2.486  1.00  0.00    +0.013 A 
ATOM     14  C   UNL     1      -2.978  -1.144   0.402  1.00  0.00    +0.029 A 
ATOM     15  N   UNL     1      -1.673  -0.199  -1.095  1.00  0.00    -0.350 N 
ATOM     16  C   UNL     1      -2.638  -0.867   2.735  1.00  0.00    +0.027 A 
ATOM     17  C   UNL     1      -3.500  -1.054   1.648  1.00  0.00    +0.044 A 
ATOM     18  C   UNL     1      -3.815  -0.701  -0.555  1.00  0.00    +0.012 A 
ATOM     19  C   UNL     1      -2.976  -0.081  -1.488  1.00  0.00    +0.110 A 
ATOM     20  N   UNL     1      -4.842  -0.580   1.540  1.00  0.00    -0.380 N 
ATOM     21  C   UNL     1      -5.090  -0.263   0.120  1.00  0.00    +0.152 C 
ATOM     22  H   UNL     1      -0.859   0.289  -1.526  1.00  0.00    +0.167 HD
ATOM     23  H   UNL     1      -5.466  -0.320   2.340  1.00  0.00    +0.160 HD
BRANCH  19  24
ATOM     24  C   UNL     1      -3.392   0.699  -2.672  1.00  0.00    +0.265 C 
ATOM     25  O   UNL     1      -2.510   1.223  -3.408  1.00  0.00    -0.268 OA
ATOM     26  N   UNL     1      -4.770   0.831  -3.032  1.00  0.00    -0.364 N 
ATOM     27  H   UNL     1      -5.037   1.315  -3.920  1.00  0.00    +0.160 HD
ATOM     28  H   UNL     1      -5.535   0.471  -2.420  1.00  0.00    +0.160 HD
ENDBRANCH  19  24
ENDBRANCH   4  11
TORSDOF 4
