REMARK SMILES Cc1cccc(Cl)c1-n1c(-c2cccnc2)nc(Cl)c1N
REMARK SMILES IDX 9 1 10 2 17 3 18 4 20 5 19 6 8 7 2 8 3 9 6 10 4 11 5 12 1 13
REMARK SMILES IDX 7 14 11 15 16 16 12 17 15 18 13 19 14 20 21 21
REMARK H PARENT 21 22 21 23
ROOT
ATOM      1  N   UNL     1      -0.138  -0.834  -1.000  1.00  0.00    -0.276 N 
ATOM      2  C   UNL     1       1.142  -1.099  -0.631  1.00  0.00    +0.149 A 
ATOM      3  N   UNL     1       1.609  -2.254  -1.166  1.00  0.00    -0.214 NA
ATOM      4  C   UNL     1       0.583  -2.722  -1.903  1.00  0.00    +0.172 A 
ATOM      5  C   UNL     1      -0.483  -1.861  -1.798  1.00  0.00    +0.148 A 
ATOM      6 Cl   UNL     1       0.635  -4.221  -2.811  1.00  0.00    -0.058 Cl
ENDROOT
BRANCH   1   7
ATOM      7  C   UNL     1      -1.006   0.212  -0.533  1.00  0.00    +0.071 A 
ATOM      8  C   UNL     1      -1.511   0.194   0.788  1.00  0.00    -0.025 A 
ATOM      9  C   UNL     1      -2.328   1.248   1.227  1.00  0.00    +0.006 A 
ATOM     10  C   UNL     1      -1.366   1.261  -1.402  1.00  0.00    +0.065 A 
ATOM     11  C   UNL     1      -2.669   2.288   0.361  1.00  0.00    +0.002 A 
ATOM     12  C   UNL     1      -2.193   2.293  -0.950  1.00  0.00    +0.023 A 
ATOM     13  C   UNL     1      -1.156  -0.909   1.747  1.00  0.00    +0.046 C 
ATOM     14 Cl   UNL     1      -0.754   1.323  -3.050  1.00  0.00    -0.082 Cl
ENDBRANCH   1   7
BRANCH   2  15
ATOM     15  C   UNL     1       1.962  -0.267   0.279  1.00  0.00    +0.036 A 
ATOM     16  C   UNL     1       2.868  -0.878   1.159  1.00  0.00    +0.122 A 
ATOM     17  C   UNL     1       1.888   1.135   0.265  1.00  0.00    +0.015 A 
ATOM     18  N   UNL     1       3.630  -0.122   1.993  1.00  0.00    -0.264 NA
ATOM     19  C   UNL     1       2.681   1.888   1.133  1.00  0.00    +0.021 A 
ATOM     20  C   UNL     1       3.553   1.235   2.002  1.00  0.00    +0.111 A 
ENDBRANCH   2  15
BRANCH   5  21
ATOM     21  N   UNL     1      -1.775  -2.043  -2.383  1.00  0.00    -0.382 N 
ATOM     22  H   UNL     1      -2.529  -1.335  -2.245  1.00  0.00    +0.158 HD
ATOM     23  H   UNL     1      -1.981  -2.886  -2.964  1.00  0.00    +0.158 HD
ENDBRANCH   5  21
TORSDOF 3
