REMARK SMILES C=CC(=O)N1CCN(c2c(-c3c(F)cccc3F)nc(C(C)C)nc2-c2c(Cl)ccc(F)c2F)CC1
REMARK SMILES IDX 20 1 19 2 10 3 9 4 25 5 24 6 21 7 22 8 23 9 11 10 17 11
REMARK SMILES IDX 12 12 16 13 14 14 15 15 18 16 13 17 26 18 27 19 33 20 29 21
REMARK SMILES IDX 31 22 30 23 28 24 34 25 32 26 8 27 7 28 35 29 6 30 36 31
REMARK SMILES IDX 5 32 3 33 4 34 2 35 1 36
REMARK H PARENT
ROOT
ATOM      1  C   UNL     1      -3.326   0.286   0.297  1.00  0.00    +0.132 A 
ATOM      2  N   UNL     1      -3.012  -0.904  -0.277  1.00  0.00    -0.230 NA
ATOM      3  C   UNL     1      -1.723  -1.238  -0.549  1.00  0.00    +0.104 A 
ATOM      4  C   UNL     1      -0.687  -0.343  -0.233  1.00  0.00    +0.091 A 
ATOM      5  C   UNL     1      -1.030   0.875   0.375  1.00  0.00    +0.103 A 
ATOM      6  N   UNL     1      -2.335   1.159   0.623  1.00  0.00    -0.230 NA
ENDROOT
BRANCH   1   7
ATOM      7  C   UNL     1      -4.768   0.640   0.549  1.00  0.00    +0.051 C 
ATOM      8  C   UNL     1      -5.188   1.824  -0.327  1.00  0.00    +0.016 C 
ATOM      9  C   UNL     1      -5.001   0.942   2.034  1.00  0.00    +0.016 C 
ENDBRANCH   1   7
BRANCH   3  10
ATOM     10  C   UNL     1      -1.438  -2.550  -1.143  1.00  0.00    +0.074 A 
ATOM     11  C   UNL     1      -1.316  -2.686  -2.535  1.00  0.00    +0.135 A 
ATOM     12  C   UNL     1      -1.285  -3.678  -0.319  1.00  0.00    +0.135 A 
ATOM     13  C   UNL     1      -1.025  -3.935  -3.094  1.00  0.00    +0.040 A 
ATOM     14  C   UNL     1      -0.994  -4.925  -0.882  1.00  0.00    +0.040 A 
ATOM     15  C   UNL     1      -0.858  -5.052  -2.268  1.00  0.00    +0.006 A 
ATOM     16  F   UNL     1      -1.483  -1.609  -3.346  1.00  0.00    -0.206 F 
ATOM     17  F   UNL     1      -1.411  -3.571   1.028  1.00  0.00    -0.206 F 
ENDBRANCH   3  10
BRANCH   5  18
ATOM     18  C   UNL     1      -0.003   1.861   0.745  1.00  0.00    +0.060 A 
ATOM     19  C   UNL     1       0.488   1.930   2.064  1.00  0.00    +0.053 A 
ATOM     20  C   UNL     1       0.507   2.731  -0.233  1.00  0.00    +0.169 A 
ATOM     21  C   UNL     1       1.515   2.827   2.375  1.00  0.00    +0.024 A 
ATOM     22  C   UNL     1       1.536   3.620   0.089  1.00  0.00    +0.159 A 
ATOM     23  C   UNL     1       2.046   3.661   1.388  1.00  0.00    +0.044 A 
ATOM     24 Cl   UNL     1      -0.153   0.894   3.337  1.00  0.00    -0.083 Cl
ATOM     25  F   UNL     1       0.011   2.708  -1.498  1.00  0.00    -0.203 F 
ATOM     26  F   UNL     1       2.048   4.441  -0.860  1.00  0.00    -0.204 F 
ENDBRANCH   5  18
BRANCH   4  27
ATOM     27  N   UNL     1       0.685  -0.667  -0.510  1.00  0.00    -0.364 N 
ATOM     28  C   UNL     1       1.238  -0.444  -1.854  1.00  0.00    +0.138 C 
ATOM     29  C   UNL     1       1.497  -1.298   0.539  1.00  0.00    +0.138 C 
ATOM     30  C   UNL     1       2.593   0.279  -1.762  1.00  0.00    +0.141 C 
ATOM     31  C   UNL     1       2.965  -1.366   0.122  1.00  0.00    +0.141 C 
ATOM     32  N   UNL     1       3.326  -0.111  -0.548  1.00  0.00    -0.336 N 
ATOM     33  C   UNL     1       4.270   0.815   0.020  1.00  0.00    +0.246 C 
ATOM     34  O   UNL     1       4.944   1.556  -0.749  1.00  0.00    -0.270 OA
BRANCH  33  35
ATOM     35  C   UNL     1       4.409   0.958   1.485  1.00  0.00    +0.063 C 
ATOM     36  C   UNL     1       5.282   1.795   2.040  1.00  0.00    +0.014 C 
ENDBRANCH  33  35
ENDBRANCH   4  27
TORSDOF 5
