REMARK SMILES CC(C)n1[nH]c2cc(F)c(C3c4cc(F)ccc4N=C4CC=NN43)cc2c1=O
REMARK SMILES IDX 4 1 27 2 28 3 26 4 6 5 5 6 7 7 8 8 9 9 10 10 25 11 2 13 1 14
REMARK SMILES IDX 3 15 11 16 12 17 24 18 18 19 13 20 20 21 23 22 17 23 19 24
REMARK SMILES IDX 14 25 21 26 22 27 16 28 15 29
REMARK H PARENT 5 12
ROOT
ATOM      1  N   UNL     1       3.667  -0.541  -0.313  1.00  0.00    -0.250 N 
ATOM      2  C   UNL     1       2.728  -0.419  -1.282  1.00  0.00    +0.274 A 
ATOM      3  O   UNL     1       2.948  -0.543  -2.516  1.00  0.00    -0.267 OA
ATOM      4  C   UNL     1       1.519  -0.116  -0.699  1.00  0.00    +0.067 A 
ATOM      5  C   UNL     1       1.785  -0.058   0.640  1.00  0.00    +0.070 A 
ATOM      6  N   UNL     1       3.090  -0.303   0.863  1.00  0.00    -0.295 N 
ATOM      7  C   UNL     1       0.792   0.218   1.570  1.00  0.00    +0.068 A 
ATOM      8  C   UNL     1      -0.513   0.445   1.092  1.00  0.00    +0.131 A 
ATOM      9  F   UNL     1      -1.501   0.679   1.991  1.00  0.00    -0.207 F 
ATOM     10  C   UNL     1      -0.791   0.423  -0.308  1.00  0.00    +0.018 A 
ATOM     11  C   UNL     1       0.250   0.127  -1.217  1.00  0.00    +0.025 A 
ATOM     12  H   UNL     1       3.570  -0.288   1.790  1.00  0.00    +0.188 HD
ENDROOT
BRANCH   1  13
ATOM     13  C   UNL     1       5.109  -0.737  -0.531  1.00  0.00    +0.103 C 
ATOM     14  C   UNL     1       5.810   0.624  -0.636  1.00  0.00    +0.033 C 
ATOM     15  C   UNL     1       5.734  -1.601   0.579  1.00  0.00    +0.033 C 
ENDBRANCH   1  13
BRANCH  10  16
ATOM     16  C   UNL     1      -2.195   0.636  -0.839  1.00  0.00    +0.175 C 
ATOM     17  C   UNL     1      -3.048  -0.596  -0.575  1.00  0.00    +0.010 A 
ATOM     18  N   UNL     1      -2.801   1.818  -0.227  1.00  0.00    -0.239 N 
ATOM     19  C   UNL     1      -4.185  -0.528   0.272  1.00  0.00    +0.071 A 
ATOM     20  C   UNL     1      -2.715  -1.820  -1.179  1.00  0.00    +0.047 A 
ATOM     21  C   UNL     1      -3.929   1.798   0.613  1.00  0.00    +0.132 C 
ATOM     22  N   UNL     1      -2.295   3.116  -0.250  1.00  0.00    -0.183 NA
ATOM     23  C   UNL     1      -4.938  -1.683   0.520  1.00  0.00    +0.032 A 
ATOM     24  N   UNL     1      -4.585   0.714   0.872  1.00  0.00    -0.233 NA
ATOM     25  C   UNL     1      -3.477  -2.962  -0.929  1.00  0.00    +0.123 A 
ATOM     26  C   UNL     1      -4.185   3.154   1.156  1.00  0.00    +0.126 C 
ATOM     27  C   UNL     1      -3.033   3.880   0.500  1.00  0.00    +0.114 C 
ATOM     28  C   UNL     1      -4.580  -2.895  -0.075  1.00  0.00    +0.041 A 
ATOM     29  F   UNL     1      -3.141  -4.136  -1.515  1.00  0.00    -0.207 F 
ENDBRANCH  10  16
TORSDOF 2
