REMARK SMILES Cn1ccnc1C(c1ccc(Cl)cc1)(c1ccc(Cl)cc1)c1ccc2c(ccc(=O)n2C)c1
REMARK SMILES IDX 7 1 6 2 2 3 3 4 4 5 5 6 1 7 8 8 9 9 14 10 10 11 13 12 11 13
REMARK SMILES IDX 12 14 22 15 33 16 23 17 26 18 24 19 25 20 27 21 31 22 28 23
REMARK SMILES IDX 29 24 30 25 32 26 15 27 16 28 21 29 17 30 20 31 18 32 19 33
REMARK H PARENT
ROOT
ATOM      1  C   UNL     1      -1.131   0.190   0.152  1.00  0.00    +0.103 C 
ENDROOT
BRANCH   1   2
ATOM      2  C   UNL     1      -1.378   0.022   1.675  1.00  0.00    +0.128 A 
ATOM      3  N   UNL     1      -1.199  -1.119   2.402  1.00  0.00    -0.337 N 
ATOM      4  C   UNL     1      -1.409  -0.767   3.684  1.00  0.00    +0.107 A 
ATOM      5  C   UNL     1      -1.691   0.572   3.730  1.00  0.00    +0.131 A 
ATOM      6  N   UNL     1      -1.637   1.077   2.486  1.00  0.00    -0.240 NA
ATOM      7  C   UNL     1      -0.734  -2.439   1.992  1.00  0.00    +0.151 C 
ENDBRANCH   1   2
BRANCH   1   8
ATOM      8  C   UNL     1      -1.991  -0.894  -0.584  1.00  0.00    -0.025 A 
ATOM      9  C   UNL     1      -1.449  -2.139  -1.005  1.00  0.00    +0.007 A 
ATOM     10  C   UNL     1      -3.394  -0.729  -0.743  1.00  0.00    +0.007 A 
ATOM     11  C   UNL     1      -2.246  -3.125  -1.593  1.00  0.00    +0.021 A 
ATOM     12  C   UNL     1      -4.179  -1.711  -1.346  1.00  0.00    +0.021 A 
ATOM     13  C   UNL     1      -3.610  -2.910  -1.766  1.00  0.00    +0.041 A 
ATOM     14 Cl   UNL     1      -4.612  -4.154  -2.488  1.00  0.00    -0.084 Cl
ENDBRANCH   1   8
BRANCH   1  15
ATOM     15  C   UNL     1       0.404   0.043  -0.097  1.00  0.00    -0.025 A 
ATOM     16  C   UNL     1       1.342   0.435   0.887  1.00  0.00    +0.015 A 
ATOM     17  C   UNL     1       0.915  -0.332  -1.359  1.00  0.00    +0.007 A 
ATOM     18  C   UNL     1       2.723   0.338   0.660  1.00  0.00    -0.001 A 
ATOM     19  C   UNL     1       2.285  -0.439  -1.592  1.00  0.00    +0.027 A 
ATOM     20  C   UNL     1       3.219  -0.122  -0.584  1.00  0.00    +0.051 A 
ATOM     21  C   UNL     1       3.622   0.705   1.662  1.00  0.00    +0.016 A 
ATOM     22  N   UNL     1       4.585  -0.227  -0.788  1.00  0.00    -0.311 N 
ATOM     23  C   UNL     1       4.987   0.622   1.434  1.00  0.00    +0.072 A 
ATOM     24  C   UNL     1       5.459   0.155   0.206  1.00  0.00    +0.250 A 
ATOM     25  O   UNL     1       6.707   0.090   0.034  1.00  0.00    -0.269 OA
ATOM     26  C   UNL     1       5.116  -0.726  -2.074  1.00  0.00    +0.153 C 
ENDBRANCH   1  15
BRANCH   1  27
ATOM     27  C   UNL     1      -1.567   1.621  -0.333  1.00  0.00    -0.025 A 
ATOM     28  C   UNL     1      -0.875   2.310  -1.368  1.00  0.00    +0.007 A 
ATOM     29  C   UNL     1      -2.719   2.270   0.190  1.00  0.00    +0.007 A 
ATOM     30  C   UNL     1      -1.275   3.576  -1.799  1.00  0.00    +0.021 A 
ATOM     31  C   UNL     1      -3.118   3.533  -0.253  1.00  0.00    +0.021 A 
ATOM     32  C   UNL     1      -2.390   4.192  -1.237  1.00  0.00    +0.041 A 
ATOM     33 Cl   UNL     1      -2.868   5.792  -1.771  1.00  0.00    -0.084 Cl
ENDBRANCH   1  27
TORSDOF 4
