REMARK SMILES Cc1cnc(-c2ccccc2Cl)c(N2CCC(N)(c3ccccn3)CC2)n1
REMARK SMILES IDX 1 1 2 2 3 3 4 4 5 5 13 6 27 7 14 8 15 9 26 10 16 11 25 12
REMARK SMILES IDX 17 13 18 14 19 17 24 18 20 19 23 20 21 21 22 22 6 23 7 24
REMARK SMILES IDX 11 25 8 26 10 27 9 28 12 29
REMARK H PARENT 18 15 18 16
ROOT
ATOM      1  C   UNL     1      -3.153  -4.748   0.241  1.00  0.00    +0.068 C 
ATOM      2  C   UNL     1      -3.141  -3.256   0.197  1.00  0.00    +0.058 A 
ATOM      3  C   UNL     1      -4.332  -2.529   0.176  1.00  0.00    +0.135 A 
ATOM      4  N   UNL     1      -4.285  -1.172   0.111  1.00  0.00    -0.250 NA
ATOM      5  C   UNL     1      -3.103  -0.499   0.060  1.00  0.00    +0.114 A 
ATOM      6  C   UNL     1      -1.904  -1.228   0.076  1.00  0.00    +0.155 A 
ATOM      7  N   UNL     1      -1.961  -2.586   0.140  1.00  0.00    -0.232 NA
ENDROOT
BRANCH   6   8
ATOM      8  N   UNL     1      -0.623  -0.582   0.017  1.00  0.00    -0.355 N 
ATOM      9  C   UNL     1       0.055  -0.584  -1.296  1.00  0.00    +0.120 C 
ATOM     10  C   UNL     1       0.115  -0.504   1.287  1.00  0.00    +0.120 C 
ATOM     11  C   UNL     1       1.375   0.208  -1.287  1.00  0.00    +0.050 C 
ATOM     12  C   UNL     1       1.433   0.267   1.176  1.00  0.00    +0.050 C 
ATOM     13  C   UNL     1       2.250  -0.146  -0.066  1.00  0.00    +0.062 C 
BRANCH  13  14
ATOM     14  N   UNL     1       2.500  -1.599  -0.057  1.00  0.00    -0.320 NA
ATOM     15  H   UNL     1       2.957  -1.881   0.841  1.00  0.00    +0.119 HD
ATOM     16  H   UNL     1       3.158  -1.841  -0.835  1.00  0.00    +0.119 HD
ENDBRANCH  13  14
BRANCH  13  17
ATOM     17  C   UNL     1       3.585   0.605  -0.096  1.00  0.00    +0.060 A 
ATOM     18  N   UNL     1       3.881   1.445  -1.132  1.00  0.00    -0.259 NA
ATOM     19  C   UNL     1       4.545   0.417   0.920  1.00  0.00    +0.026 A 
ATOM     20  C   UNL     1       5.079   2.085  -1.225  1.00  0.00    +0.111 A 
ATOM     21  C   UNL     1       5.776   1.075   0.844  1.00  0.00    +0.004 A 
ATOM     22  C   UNL     1       6.052   1.912  -0.234  1.00  0.00    +0.020 A 
ENDBRANCH  13  17
ENDBRANCH   6   8
BRANCH   5  23
ATOM     23  C   UNL     1      -3.112   0.966  -0.025  1.00  0.00    +0.023 A 
ATOM     24  C   UNL     1      -3.189   1.573  -1.287  1.00  0.00    +0.012 A 
ATOM     25  C   UNL     1      -3.062   1.766   1.134  1.00  0.00    +0.050 A 
ATOM     26  C   UNL     1      -3.197   2.967  -1.397  1.00  0.00    +0.001 A 
ATOM     27  C   UNL     1      -3.044   3.165   1.010  1.00  0.00    +0.021 A 
ATOM     28  C   UNL     1      -3.115   3.764  -0.249  1.00  0.00    +0.002 A 
ATOM     29 Cl   UNL     1      -3.073   1.053   2.748  1.00  0.00    -0.084 Cl
ENDBRANCH   5  23
TORSDOF 4
