REMARK SMILES O=c1[nH]cc(F)c(=O)[nH]1
REMARK SMILES IDX 4 1 5 2 7 3 8 4 9 5 2 6 1 7 3 8 6 9
REMARK H PARENT 9 10 3 11
ROOT
ATOM      1  C   UNL     1       0.468   1.295  -0.059  1.00  0.00    +0.132 A 
ATOM      2  C   UNL     1       1.354   0.221   0.004  1.00  0.00    +0.204 A 
ATOM      3  C   UNL     1       0.831  -1.073   0.063  1.00  0.00    +0.289 A 
ATOM      4  O   UNL     1       1.606  -2.065   0.121  1.00  0.00    -0.266 OA
ATOM      5  N   UNL     1      -0.517  -1.260   0.057  1.00  0.00    -0.272 N 
ATOM      6  C   UNL     1      -1.367  -0.197  -0.005  1.00  0.00    +0.325 A 
ATOM      7  O   UNL     1      -2.613  -0.388  -0.009  1.00  0.00    -0.248 OA
ATOM      8  N   UNL     1      -0.873   1.070  -0.063  1.00  0.00    -0.311 N 
ATOM      9  F   UNL     1       2.694   0.434   0.008  1.00  0.00    -0.199 F 
ATOM     10  H   UNL     1      -0.904  -2.230   0.101  1.00  0.00    +0.175 HD
ATOM     11  H   UNL     1      -1.527   1.884  -0.111  1.00  0.00    +0.171 HD
ENDROOT
TORSDOF 0
