REMARK SMILES C=C(F)C(=O)N1CCN(c2nc(OC[C@@H]3CCCN3C)nc3c2CCN(c2cccc4cccc(Cl)c24)C3)C[C@@H]1CC#N
REMARK SMILES IDX 12 1 21 2 22 3 23 4 24 5 25 6 26 7 38 8 10 9 11 10 13 11
REMARK SMILES IDX 14 12 15 13 19 14 18 15 17 16 16 17 20 18 9 19 8 20 39 21
REMARK SMILES IDX 7 22 40 23 6 24 41 25 42 26 43 27 4 28 5 29 2 30 1 31 3 32
REMARK SMILES IDX 27 33 28 34 37 35 29 36 31 37 35 38 30 39 32 40 34 41 33 42
REMARK SMILES IDX 36 43
REMARK H PARENT
ROOT
ATOM      1  C   UNL     1       2.022  -0.545  -0.425  1.00  0.00    +0.318 A 
ATOM      2  N   UNL     1       1.607   0.726  -0.669  1.00  0.00    -0.198 NA
ATOM      3  C   UNL     1       0.288   1.047  -0.703  1.00  0.00    +0.072 A 
ATOM      4  C   UNL     1      -0.683   0.037  -0.517  1.00  0.00    +0.020 A 
ATOM      5  C   UNL     1      -2.163   0.361  -0.533  1.00  0.00    +0.063 C 
ATOM      6  C   UNL     1      -2.458   1.675  -1.256  1.00  0.00    +0.122 C 
ATOM      7  N   UNL     1      -1.515   2.695  -0.797  1.00  0.00    -0.365 N 
ATOM      8  C   UNL     1      -0.094   2.460  -1.056  1.00  0.00    +0.173 C 
ATOM      9  C   UNL     1      -0.225  -1.268  -0.244  1.00  0.00    +0.139 A 
ATOM     10  N   UNL     1       1.108  -1.524  -0.216  1.00  0.00    -0.178 NA
ENDROOT
BRANCH   1  11
ATOM     11  O   UNL     1       3.383  -0.855  -0.387  1.00  0.00    -0.462 OA
BRANCH  11  12
ATOM     12  C   UNL     1       4.396   0.125  -0.603  1.00  0.00    +0.252 C 
BRANCH  12  13
ATOM     13  C   UNL     1       5.787  -0.502  -0.434  1.00  0.00    +0.094 C 
ATOM     14  N   UNL     1       6.810   0.511  -0.746  1.00  0.00    -0.300 NA
ATOM     15  C   UNL     1       7.201   1.115   0.541  1.00  0.00    +0.084 C 
ATOM     16  C   UNL     1       6.744   0.198   1.670  1.00  0.00    +0.017 C 
ATOM     17  C   UNL     1       6.031  -0.959   1.002  1.00  0.00    +0.024 C 
ATOM     18  C   UNL     1       7.971  -0.102  -1.414  1.00  0.00    +0.105 C 
ENDBRANCH  12  13
ENDBRANCH  11  12
ENDBRANCH   1  11
BRANCH   9  19
ATOM     19  N   UNL     1      -1.138  -2.353  -0.029  1.00  0.00    -0.352 N 
ATOM     20  C   UNL     1      -1.943  -2.404   1.200  1.00  0.00    +0.139 C 
ATOM     21  C   UNL     1      -1.438  -3.260  -1.143  1.00  0.00    +0.144 C 
ATOM     22  C   UNL     1      -2.153  -3.857   1.644  1.00  0.00    +0.142 C 
ATOM     23  C   UNL     1      -1.601  -4.691  -0.606  1.00  0.00    +0.119 C 
ATOM     24  N   UNL     1      -2.596  -4.662   0.494  1.00  0.00    -0.329 N 
BRANCH  23  25
ATOM     25  C   UNL     1      -1.881  -5.708  -1.733  1.00  0.00    +0.147 C 
ATOM     26  C   UNL     1      -0.695  -5.905  -2.581  1.00  0.00    +0.064 C 
ATOM     27  N   UNL     1       0.239  -6.064  -3.245  1.00  0.00    -0.198 NA
ENDBRANCH  23  25
BRANCH  24  28
ATOM     28  C   UNL     1      -3.982  -5.101   0.374  1.00  0.00    +0.282 C 
ATOM     29  O   UNL     1      -4.372  -5.745  -0.631  1.00  0.00    -0.266 OA
BRANCH  28  30
ATOM     30  C   UNL     1      -4.980  -4.875   1.434  1.00  0.00    +0.180 C 
ATOM     31  C   UNL     1      -5.420  -3.654   1.727  1.00  0.00    +0.057 C 
ATOM     32  F   UNL     1      -5.599  -5.954   1.988  1.00  0.00    -0.202 F 
ENDBRANCH  28  30
ENDBRANCH  24  28
ENDBRANCH   9  19
BRANCH   7  33
ATOM     33  C   UNL     1      -1.917   3.608   0.236  1.00  0.00    +0.046 A 
ATOM     34  C   UNL     1      -1.644   3.252   1.566  1.00  0.00    +0.026 A 
ATOM     35  C   UNL     1      -2.627   4.814  -0.042  1.00  0.00    +0.024 A 
ATOM     36  C   UNL     1      -2.083   4.039   2.625  1.00  0.00    +0.003 A 
ATOM     37  C   UNL     1      -3.091   5.591   1.061  1.00  0.00    -0.015 A 
ATOM     38  C   UNL     1      -2.892   5.294  -1.360  1.00  0.00    +0.050 A 
ATOM     39  C   UNL     1      -2.815   5.194   2.377  1.00  0.00    +0.009 A 
ATOM     40  C   UNL     1      -3.829   6.764   0.842  1.00  0.00    +0.009 A 
ATOM     41  C   UNL     1      -3.635   6.467  -1.542  1.00  0.00    +0.021 A 
ATOM     42  C   UNL     1      -4.106   7.191  -0.451  1.00  0.00    +0.002 A 
ATOM     43 Cl   UNL     1      -2.279   4.550  -2.835  1.00  0.00    -0.084 Cl
ENDBRANCH   7  33
TORSDOF 8
