REMARK SMILES C[C@H](Oc1ccnc(-c2noc([C@@]3(C)CCCc4sc(N)c(C#N)c43)n2)n1)[C@@H]1CCCN1C
REMARK SMILES IDX 4 1 27 2 8 3 7 4 6 5 5 6 3 7 2 8 1 9 28 10 29 11 32 12 30 13
REMARK SMILES IDX 31 14 33 15 9 16 10 17 26 18 11 19 12 20 13 21 15 22 25 23
REMARK SMILES IDX 16 24 18 25 22 26 17 27 19 28 20 29 23 30 24 31 14 32 21 33
REMARK H PARENT 21 34 21 35
ROOT
ATOM      1  C   UNL     1       2.285  -0.015   1.944  1.00  0.00    +0.217 A 
ATOM      2  N   UNL     1       0.983  -0.117   1.567  1.00  0.00    -0.190 NA
ATOM      3  C   UNL     1      -0.035   0.103   2.446  1.00  0.00    +0.204 A 
ATOM      4  N   UNL     1       0.240   0.438   3.736  1.00  0.00    -0.233 NA
ATOM      5  C   UNL     1       1.526   0.540   4.165  1.00  0.00    +0.119 A 
ATOM      6  C   UNL     1       2.583   0.308   3.284  1.00  0.00    +0.088 A 
ENDROOT
BRANCH   1   7
ATOM      7  O   UNL     1       3.272  -0.207   0.962  1.00  0.00    -0.473 OA
BRANCH   7   8
ATOM      8  C   UNL     1       4.639  -0.574   1.189  1.00  0.00    +0.189 C 
ATOM      9  C   UNL     1       4.758  -2.096   1.297  1.00  0.00    +0.054 C 
BRANCH   8  10
ATOM     10  C   UNL     1       5.569  -0.001   0.091  1.00  0.00    +0.097 C 
ATOM     11  C   UNL     1       5.548   1.521   0.007  1.00  0.00    +0.024 C 
ATOM     12  N   UNL     1       5.393  -0.512  -1.285  1.00  0.00    -0.300 NA
ATOM     13  C   UNL     1       6.077   1.814  -1.392  1.00  0.00    +0.017 C 
ATOM     14  C   UNL     1       6.157   0.455  -2.090  1.00  0.00    +0.084 C 
ATOM     15  C   UNL     1       3.991  -0.531  -1.755  1.00  0.00    +0.105 C 
ENDBRANCH   8  10
ENDBRANCH   7   8
ENDBRANCH   1   7
BRANCH   3  16
ATOM     16  C   UNL     1      -1.420  -0.032   1.994  1.00  0.00    +0.240 A 
ATOM     17  N   UNL     1      -2.495   0.328   2.724  1.00  0.00    -0.054 NA
ATOM     18  N   UNL     1      -1.752  -0.521   0.783  1.00  0.00    -0.188 NA
ATOM     19  O   UNL     1      -3.513   0.059   1.964  1.00  0.00    -0.338 OA
ATOM     20  C   UNL     1      -3.098  -0.438   0.822  1.00  0.00    +0.237 A 
BRANCH  20  21
ATOM     21  C   UNL     1      -4.018  -0.860  -0.307  1.00  0.00    +0.074 C 
ATOM     22  C   UNL     1      -4.995  -1.931   0.262  1.00  0.00    +0.022 C 
ATOM     23  C   UNL     1      -4.817   0.331  -0.820  1.00  0.00    +0.001 A 
ATOM     24  C   UNL     1      -6.111  -2.312  -0.726  1.00  0.00    +0.007 C 
ATOM     25  C   UNL     1      -6.134   0.177  -1.259  1.00  0.00    +0.012 A 
ATOM     26  C   UNL     1      -4.329   1.643  -1.041  1.00  0.00    +0.091 A 
ATOM     27  C   UNL     1      -6.923  -1.101  -1.243  1.00  0.00    +0.047 C 
ATOM     28  S   UNL     1      -6.716   1.648  -1.845  1.00  0.00    -0.122 S 
ATOM     29  C   UNL     1      -5.293   2.491  -1.578  1.00  0.00    +0.104 A 
ATOM     30  C   UNL     1      -2.965   2.065  -0.831  1.00  0.00    +0.103 C 
ATOM     31  N   UNL     1      -1.869   2.393  -0.674  1.00  0.00    -0.192 NA
ATOM     32  C   UNL     1      -3.185  -1.445  -1.474  1.00  0.00    +0.027 C 
BRANCH  29  33
ATOM     33  N   UNL     1      -5.107   3.877  -1.868  1.00  0.00    -0.389 N 
ATOM     34  H   UNL     1      -4.276   4.392  -1.510  1.00  0.00    +0.157 HD
ATOM     35  H   UNL     1      -5.878   4.417  -2.325  1.00  0.00    +0.157 HD
ENDBRANCH  29  33
ENDBRANCH  20  21
ENDBRANCH   3  16
TORSDOF 6
