REMARK SMILES Cn1cnc(Cn2ccc3ccc(CNCc4[nH]c5ccccc5c4[C@H]4NC(=O)c5ccc(O)cc54)cc32)c1
REMARK SMILES IDX 15 1 14 3 13 4 7 5 8 6 38 7 9 8 10 9 37 10 11 11 12 12 6 13
REMARK SMILES IDX 5 14 2 15 39 16 3 17 4 18 1 19 16 20 17 21 25 22 18 23 24 24
REMARK SMILES IDX 19 25 23 26 20 27 22 28 21 29 26 31 36 32 27 33 30 34 35 35
REMARK SMILES IDX 28 36 31 37 33 38 29 39 32 40 34 42
REMARK H PARENT 15 2 18 30 27 41 34 43
ROOT
ATOM      1  N   UNL     1      -0.102  -0.791   0.494  1.00  0.00    -0.307 NA
ATOM      2  H   UNL     1      -0.700  -0.344   1.230  1.00  0.00    +0.123 HD
ENDROOT
BRANCH   1   3
ATOM      3  C   UNL     1       0.857   0.200  -0.009  1.00  0.00    +0.117 C 
BRANCH   3   4
ATOM      4  C   UNL     1       1.826   0.558   1.081  1.00  0.00    -0.032 A 
ATOM      5  N   UNL     1       5.081  -0.359   2.595  1.00  0.00    -0.341 N 
ATOM      6  C   UNL     1       5.507   0.298   3.702  1.00  0.00    +0.087 A 
ATOM      7  C   UNL     1       3.882   0.174   2.282  1.00  0.00    +0.049 A 
ATOM      8  C   UNL     1       4.566   1.239   4.105  1.00  0.00    +0.028 A 
ATOM      9  C   UNL     1       3.543   1.145   3.187  1.00  0.00    -0.000 A 
ATOM     10  C   UNL     1       3.042  -0.150   1.212  1.00  0.00    +0.032 A 
ATOM     11  C   UNL     1       2.352   1.862   3.091  1.00  0.00    +0.010 A 
ATOM     12  C   UNL     1       1.486   1.557   2.029  1.00  0.00    +0.006 A 
BRANCH   5  13
ATOM     13  C   UNL     1       5.858  -1.335   1.833  1.00  0.00    +0.179 C 
BRANCH  13  14
ATOM     14  C   UNL     1       6.676  -0.629   0.799  1.00  0.00    +0.078 A 
ATOM     15  N   UNL     1       7.267   0.346  -1.074  1.00  0.00    -0.340 N 
ATOM     16  C   UNL     1       6.308  -0.404  -0.510  1.00  0.00    +0.112 A 
ATOM     17  C   UNL     1       8.192   0.549  -0.116  1.00  0.00    +0.199 A 
ATOM     18  N   UNL     1       7.854  -0.024   1.058  1.00  0.00    -0.240 NA
ATOM     19  C   UNL     1       7.342   0.767  -2.467  1.00  0.00    +0.150 C 
ENDBRANCH  13  14
ENDBRANCH   5  13
ENDBRANCH   3   4
ENDBRANCH   1   3
BRANCH   1  20
ATOM     20  C   UNL     1      -0.966  -1.312  -0.575  1.00  0.00    +0.135 C 
BRANCH  20  21
ATOM     21  C   UNL     1      -1.936  -0.272  -1.073  1.00  0.00    +0.036 A 
ATOM     22  C   UNL     1      -3.147   0.087  -0.469  1.00  0.00    +0.009 A 
ATOM     23  N   UNL     1      -1.705   0.484  -2.170  1.00  0.00    -0.357 N 
ATOM     24  C   UNL     1      -3.672   1.084  -1.281  1.00  0.00    +0.005 A 
ATOM     25  C   UNL     1      -2.763   1.302  -2.288  1.00  0.00    +0.046 A 
ATOM     26  C   UNL     1      -4.869   1.803  -1.218  1.00  0.00    +0.011 A 
ATOM     27  C   UNL     1      -2.977   2.258  -3.280  1.00  0.00    +0.026 A 
ATOM     28  C   UNL     1      -5.111   2.774  -2.207  1.00  0.00    +0.001 A 
ATOM     29  C   UNL     1      -4.168   3.004  -3.231  1.00  0.00    +0.002 A 
ATOM     30  H   UNL     1      -0.872   0.443  -2.800  1.00  0.00    +0.166 HD
BRANCH  22  31
ATOM     31  C   UNL     1      -3.768  -0.556   0.747  1.00  0.00    +0.146 C 
ATOM     32  C   UNL     1      -4.914  -1.458   0.377  1.00  0.00    -0.005 A 
ATOM     33  N   UNL     1      -4.385   0.438   1.631  1.00  0.00    -0.341 N 
ATOM     34  C   UNL     1      -6.067  -1.079   1.030  1.00  0.00    +0.045 A 
ATOM     35  C   UNL     1      -4.900  -2.581  -0.454  1.00  0.00    +0.053 A 
ATOM     36  C   UNL     1      -5.751   0.086   1.816  1.00  0.00    +0.252 C 
ATOM     37  C   UNL     1      -7.261  -1.782   0.890  1.00  0.00    +0.018 A 
ATOM     38  C   UNL     1      -6.095  -3.311  -0.620  1.00  0.00    +0.115 A 
ATOM     39  O   UNL     1      -6.549   0.720   2.555  1.00  0.00    -0.269 OA
ATOM     40  C   UNL     1      -7.269  -2.911   0.053  1.00  0.00    +0.047 A 
ATOM     41  H   UNL     1      -3.889   1.220   2.116  1.00  0.00    +0.164 HD
BRANCH  38  42
ATOM     42  O   UNL     1      -6.127  -4.434  -1.445  1.00  0.00    -0.508 OA
ATOM     43  H   UNL     1      -5.313  -4.726  -1.970  1.00  0.00    +0.293 HD
ENDBRANCH  38  42
ENDBRANCH  22  31
ENDBRANCH  20  21
ENDBRANCH   1  20
TORSDOF 8
