REMARK SMILES Cn1cnc2c(F)c(Nc3ccc(Br)cc3F)c(C(=O)NOCCO)cc21
REMARK SMILES IDX 19 1 20 2 21 3 18 5 2 6 3 7 27 8 4 9 5 10 26 11 6 12 8 13
REMARK SMILES IDX 1 14 7 15 9 16 10 18 16 19 11 20 15 21 12 22 13 23 17 24
REMARK SMILES IDX 14 25 22 26 23 27 24 28 25 29
REMARK H PARENT 21 4 9 17 25 30
ROOT
ATOM      1  C   UNL     1      -1.008  -0.585   0.319  1.00  0.00    +0.277 C 
ATOM      2  O   UNL     1      -1.021  -1.527   1.156  1.00  0.00    -0.267 OA
ATOM      3  N   UNL     1      -1.776  -0.700  -0.884  1.00  0.00    -0.231 N 
ATOM      4  H   UNL     1      -1.764   0.054  -1.597  1.00  0.00    +0.199 HD
ENDROOT
BRANCH   1   5
ATOM      5  C   UNL     1      -0.219   0.630   0.583  1.00  0.00    +0.070 A 
ATOM      6  N   UNL     1      -0.248   4.324   0.190  1.00  0.00    -0.334 N 
ATOM      7  C   UNL     1       0.838   5.003   0.642  1.00  0.00    +0.200 A 
ATOM      8  C   UNL     1       0.029   3.028   0.442  1.00  0.00    +0.072 A 
ATOM      9  N   UNL     1       1.798   4.186   1.152  1.00  0.00    -0.234 NA
ATOM     10  C   UNL     1       1.266   2.952   1.006  1.00  0.00    +0.126 A 
ATOM     11  C   UNL     1      -0.756   1.889   0.213  1.00  0.00    +0.045 A 
ATOM     12  C   UNL     1       1.828   1.737   1.393  1.00  0.00    +0.175 A 
ATOM     13  C   UNL     1       1.090   0.557   1.156  1.00  0.00    +0.090 A 
ATOM     14  C   UNL     1      -1.517   4.919  -0.225  1.00  0.00    +0.151 C 
ATOM     15  F   UNL     1       3.038   1.691   1.988  1.00  0.00    -0.202 F 
BRANCH  13  16
ATOM     16  N   UNL     1       1.633  -0.704   1.582  1.00  0.00    -0.350 N 
ATOM     17  H   UNL     1       1.158  -1.165   2.391  1.00  0.00    +0.167 HD
BRANCH  16  18
ATOM     18  C   UNL     1       2.577  -1.493   0.825  1.00  0.00    +0.075 A 
ATOM     19  C   UNL     1       3.266  -0.981  -0.307  1.00  0.00    +0.147 A 
ATOM     20  C   UNL     1       2.789  -2.835   1.205  1.00  0.00    +0.030 A 
ATOM     21  C   UNL     1       4.117  -1.822  -1.040  1.00  0.00    +0.057 A 
ATOM     22  C   UNL     1       3.636  -3.663   0.462  1.00  0.00    +0.018 A 
ATOM     23  C   UNL     1       4.293  -3.160  -0.663  1.00  0.00    +0.021 A 
ATOM     24  F   UNL     1       3.130   0.307  -0.709  1.00  0.00    -0.205 F 
ATOM     25 Br   UNL     1       5.430  -4.309  -1.677  1.00  0.00    -0.051 Br
ENDBRANCH  16  18
ENDBRANCH  13  16
ENDBRANCH   1   5
BRANCH   3  26
ATOM     26  O   UNL     1      -2.470  -1.836  -1.123  1.00  0.00    -0.271 OA
BRANCH  26  27
ATOM     27  C   UNL     1      -3.758  -1.642  -0.579  1.00  0.00    +0.222 C 
BRANCH  27  28
ATOM     28  C   UNL     1      -4.589  -2.893  -0.836  1.00  0.00    +0.187 C 
BRANCH  28  29
ATOM     29  O   UNL     1      -4.825  -3.046  -2.210  1.00  0.00    -0.394 OA
ATOM     30  H   UNL     1      -4.717  -4.015  -2.420  1.00  0.00    +0.210 HD
ENDBRANCH  28  29
ENDBRANCH  27  28
ENDBRANCH  26  27
ENDBRANCH   3  26
TORSDOF 7
