REMARK SMILES CCCCCOC(=O)Nc1nc(=O)n([C@@H]2O[C@H](C)[C@@H](O)[C@H]2O)cc1F
REMARK SMILES IDX 6 1 5 2 4 3 3 4 2 5 1 6 7 7 8 8 9 9 10 11 11 12 24 13 12 14
REMARK SMILES IDX 23 15 13 16 14 17 25 18 15 19 21 20 16 21 19 22 17 23 18 24
REMARK SMILES IDX 22 25 20 27
REMARK H PARENT 9 10 22 26 20 28
ROOT
ATOM      1  O   UNL     1       3.489   0.717   2.196  1.00  0.00    -0.449 OA
ENDROOT
BRANCH   1   2
ATOM      2  C   UNL     1       4.744   0.725   1.518  1.00  0.00    +0.235 C 
BRANCH   2   3
ATOM      3  C   UNL     1       4.944  -0.610   0.790  1.00  0.00    +0.042 C 
BRANCH   3   4
ATOM      4  C   UNL     1       6.357  -0.776   0.210  1.00  0.00    +0.003 C 
BRANCH   4   5
ATOM      5  C   UNL     1       6.686   0.172  -0.956  1.00  0.00    -0.003 C 
ATOM      6  C   UNL     1       5.800  -0.058  -2.179  1.00  0.00    +0.004 C 
ENDBRANCH   4   5
ENDBRANCH   3   4
ENDBRANCH   2   3
ENDBRANCH   1   2
BRANCH   1   7
ATOM      7  C   UNL     1       2.267   0.906   1.543  1.00  0.00    +0.412 C 
ATOM      8  O   UNL     1       2.236   1.372   0.372  1.00  0.00    -0.224 OA
ATOM      9  N   UNL     1       1.058   0.518   2.204  1.00  0.00    -0.273 N 
ATOM     10  H   UNL     1       1.148  -0.034   3.083  1.00  0.00    +0.175 HD
BRANCH   9  11
ATOM     11  C   UNL     1      -0.243   0.676   1.617  1.00  0.00    +0.178 A 
ATOM     12  N   UNL     1      -0.498   1.710   0.772  1.00  0.00    -0.172 NA
ATOM     13  C   UNL     1      -1.264  -0.226   1.913  1.00  0.00    +0.182 A 
ATOM     14  C   UNL     1      -1.718   1.882   0.201  1.00  0.00    +0.351 A 
ATOM     15  C   UNL     1      -2.507  -0.054   1.308  1.00  0.00    +0.137 A 
ATOM     16  O   UNL     1      -1.895   2.860  -0.574  1.00  0.00    -0.246 OA
ATOM     17  N   UNL     1      -2.738   0.999   0.466  1.00  0.00    -0.267 N 
ATOM     18  F   UNL     1      -1.051  -1.275   2.742  1.00  0.00    -0.201 F 
BRANCH  17  19
ATOM     19  C   UNL     1      -4.043   1.127  -0.218  1.00  0.00    +0.255 C 
ATOM     20  C   UNL     1      -4.046   0.344  -1.529  1.00  0.00    +0.195 C 
ATOM     21  O   UNL     1      -5.090   0.647   0.602  1.00  0.00    -0.349 OA
ATOM     22  C   UNL     1      -5.484  -0.093  -1.653  1.00  0.00    +0.176 C 
ATOM     23  C   UNL     1      -5.952  -0.143  -0.193  1.00  0.00    +0.149 C 
ATOM     24  C   UNL     1      -5.963  -1.578   0.342  1.00  0.00    +0.041 C 
BRANCH  20  25
ATOM     25  O   UNL     1      -3.653   1.139  -2.617  1.00  0.00    -0.386 OA
ATOM     26  H   UNL     1      -2.667   1.238  -2.550  1.00  0.00    +0.211 HD
ENDBRANCH  20  25
BRANCH  22  27
ATOM     27  O   UNL     1      -6.251   0.822  -2.406  1.00  0.00    -0.388 OA
ATOM     28  H   UNL     1      -6.245   1.696  -1.936  1.00  0.00    +0.211 HD
ENDBRANCH  22  27
ENDBRANCH  17  19
ENDBRANCH   9  11
ENDBRANCH   1   7
TORSDOF 9
