REMARK SMILES O=C(c1ccc(F)c(F)c1Nc1ccc(I)cc1F)N1CC(O)([C@@H]2CCCCN2)C1
REMARK SMILES IDX 3 1 10 2 8 3 6 4 5 5 4 6 7 7 9 8 2 9 22 10 21 11 30 12 20 13
REMARK SMILES IDX 1 14 24 15 26 16 27 17 25 18 28 19 29 20 23 22 11 24 12 26
REMARK SMILES IDX 18 27 13 28 17 29 14 30 15 31 19 32 16 33
REMARK H PARENT 29 21 23 23 11 25
ROOT
ATOM      1  C   UNL     1       1.689  -1.924   0.514  1.00  0.00    +0.066 A 
ATOM      2  C   UNL     1       3.006  -1.388   0.519  1.00  0.00    +0.091 A 
ATOM      3  C   UNL     1       3.975  -1.906  -0.356  1.00  0.00    +0.183 A 
ATOM      4  C   UNL     1       3.649  -2.930  -1.247  1.00  0.00    +0.161 A 
ATOM      5  C   UNL     1       2.369  -3.471  -1.243  1.00  0.00    +0.043 A 
ATOM      6  C   UNL     1       1.400  -2.983  -0.366  1.00  0.00    +0.019 A 
ATOM      7  F   UNL     1       4.587  -3.416  -2.100  1.00  0.00    -0.204 F 
ATOM      8  F   UNL     1       5.240  -1.410  -0.344  1.00  0.00    -0.201 F 
ENDROOT
BRANCH   1   9
ATOM      9  C   UNL     1       0.620  -1.369   1.397  1.00  0.00    +0.256 C 
ATOM     10  C   UNL     1      -2.910  -1.215   0.473  1.00  0.00    +0.115 C 
ATOM     11  C   UNL     1      -1.668  -1.920  -0.002  1.00  0.00    +0.158 C 
ATOM     12  C   UNL     1      -1.965  -0.642   1.497  1.00  0.00    +0.158 C 
ATOM     13  N   UNL     1      -0.755  -1.336   1.007  1.00  0.00    -0.333 N 
ATOM     14  O   UNL     1       0.923  -0.893   2.516  1.00  0.00    -0.269 OA
BRANCH  10  15
ATOM     15  C   UNL     1      -3.599  -0.239  -0.541  1.00  0.00    +0.089 C 
ATOM     16  C   UNL     1      -3.426   1.609  -2.260  1.00  0.00    +0.003 C 
ATOM     17  C   UNL     1      -4.615   2.298  -1.588  1.00  0.00    +0.015 C 
ATOM     18  C   UNL     1      -2.645   0.760  -1.251  1.00  0.00    +0.022 C 
ATOM     19  C   UNL     1      -5.480   1.267  -0.856  1.00  0.00    +0.081 C 
ATOM     20  N   UNL     1      -4.685   0.511   0.122  1.00  0.00    -0.311 NA
ATOM     21  H   UNL     1      -5.350  -0.169   0.559  1.00  0.00    +0.123 HD
ENDBRANCH  10  15
BRANCH  10  22
ATOM     22  O   UNL     1      -3.815  -2.145   1.024  1.00  0.00    -0.385 OA
ATOM     23  H   UNL     1      -4.283  -1.699   1.775  1.00  0.00    +0.211 HD
ENDBRANCH  10  22
ENDBRANCH   1   9
BRANCH   2  24
ATOM     24  N   UNL     1       3.382  -0.358   1.446  1.00  0.00    -0.350 N 
ATOM     25  H   UNL     1       3.385  -0.613   2.458  1.00  0.00    +0.167 HD
BRANCH  24  26
ATOM     26  C   UNL     1       3.994   0.883   1.055  1.00  0.00    +0.075 A 
ATOM     27  C   UNL     1       3.679   1.508  -0.170  1.00  0.00    +0.147 A 
ATOM     28  C   UNL     1       4.901   1.502   1.928  1.00  0.00    +0.030 A 
ATOM     29  C   UNL     1       4.284   2.720  -0.517  1.00  0.00    +0.056 A 
ATOM     30  C   UNL     1       5.504   2.710   1.580  1.00  0.00    +0.017 A 
ATOM     31  C   UNL     1       5.201   3.316   0.356  1.00  0.00    +0.016 A 
ATOM     32  F   UNL     1       2.766   0.966  -1.018  1.00  0.00    -0.205 F 
ATOM     33  I   UNL     1       6.111   5.139  -0.162  1.00  0.00    -0.044 I 
ENDBRANCH  24  26
ENDBRANCH   2  24
TORSDOF 5
