REMARK SMILES CN(C)/N=N/c1nc[nH]c1C(N)=O
REMARK SMILES IDX 6 1 10 2 9 3 8 4 7 5 5 7 4 8 2 9 1 10 3 11 11 12 13 13 12 14
REMARK H PARENT 9 6 12 15 12 16
ROOT
ATOM      1  C   UNL     1       0.893  -0.002  -1.348  1.00  0.00    +0.207 A 
ATOM      2  C   UNL     1       1.936  -0.089  -0.433  1.00  0.00    +0.152 A 
ATOM      3  N   UNL     1       3.061  -0.331  -1.128  1.00  0.00    -0.339 N 
ATOM      4  C   UNL     1       2.690  -0.374  -2.422  1.00  0.00    +0.199 A 
ATOM      5  N   UNL     1       1.366  -0.177  -2.597  1.00  0.00    -0.215 NA
ATOM      6  H   UNL     1       4.033  -0.424  -0.758  1.00  0.00    +0.168 HD
ENDROOT
BRANCH   1   7
ATOM      7  N   UNL     1      -0.504   0.169  -1.083  1.00  0.00    -0.110 NA
ATOM      8  N   UNL     1      -1.004   0.011   0.075  1.00  0.00    -0.070 NA
BRANCH   8   9
ATOM      9  N   UNL     1      -2.378   0.189   0.313  1.00  0.00    -0.285 N 
ATOM     10  C   UNL     1      -3.287   0.575  -0.767  1.00  0.00    +0.169 C 
ATOM     11  C   UNL     1      -2.890   0.007   1.667  1.00  0.00    +0.169 C 
ENDBRANCH   8   9
ENDBRANCH   1   7
BRANCH   2  12
ATOM     12  C   UNL     1       1.914   0.132   1.028  1.00  0.00    +0.269 C 
ATOM     13  O   UNL     1       1.063   0.905   1.542  1.00  0.00    -0.268 OA
ATOM     14  N   UNL     1       2.888  -0.490   1.866  1.00  0.00    -0.364 N 
ATOM     15  H   UNL     1       3.586  -1.161   1.478  1.00  0.00    +0.160 HD
ATOM     16  H   UNL     1       2.888  -0.307   2.894  1.00  0.00    +0.160 HD
ENDBRANCH   2  12
TORSDOF 3
