REMARK SMILES C#Cc1cccc(Nc2ncnc3cc(OCCOC)c(OCCOC)cc23)c1
REMARK SMILES IDX 21 1 15 2 14 3 13 4 28 5 27 6 9 7 10 8 11 9 12 10 22 11
REMARK SMILES IDX 23 12 24 13 25 14 26 15 16 16 17 17 18 18 19 19 20 20 8 21
REMARK SMILES IDX 7 23 6 24 29 25 5 26 3 27 4 28 2 29 1 30
REMARK H PARENT 8 22
ROOT
ATOM      1  C   UNL     1      -1.400  -0.336  -0.670  1.00  0.00    +0.162 A 
ATOM      2  C   UNL     1      -2.121   0.865  -0.575  1.00  0.00    +0.163 A 
ATOM      3  C   UNL     1      -1.447   2.057  -0.253  1.00  0.00    +0.079 A 
ATOM      4  C   UNL     1      -0.074   2.046   0.014  1.00  0.00    +0.080 A 
ATOM      5  C   UNL     1       0.654   0.839  -0.052  1.00  0.00    +0.047 A 
ATOM      6  C   UNL     1      -0.011  -0.338  -0.438  1.00  0.00    +0.064 A 
ATOM      7  C   UNL     1       2.031   0.876   0.278  1.00  0.00    +0.141 A 
ATOM      8  N   UNL     1       2.597   2.067   0.614  1.00  0.00    -0.219 NA
ATOM      9  C   UNL     1       1.883   3.218   0.632  1.00  0.00    +0.224 A 
ATOM     10  N   UNL     1       0.557   3.202   0.351  1.00  0.00    -0.236 NA
ENDROOT
BRANCH   1  11
ATOM     11  O   UNL     1      -2.104  -1.510  -0.995  1.00  0.00    -0.487 OA
BRANCH  11  12
ATOM     12  C   UNL     1      -1.594  -2.844  -0.898  1.00  0.00    +0.258 C 
BRANCH  12  13
ATOM     13  C   UNL     1      -1.422  -3.255   0.569  1.00  0.00    +0.201 C 
BRANCH  13  14
ATOM     14  O   UNL     1      -0.878  -4.560   0.643  1.00  0.00    -0.381 OA
ATOM     15  C   UNL     1      -1.896  -5.497   0.934  1.00  0.00    +0.195 C 
ENDBRANCH  13  14
ENDBRANCH  12  13
ENDBRANCH  11  12
ENDBRANCH   1  11
BRANCH   2  16
ATOM     16  O   UNL     1      -3.510   0.830  -0.794  1.00  0.00    -0.487 OA
BRANCH  16  17
ATOM     17  C   UNL     1      -4.362   1.972  -0.753  1.00  0.00    +0.258 C 
BRANCH  17  18
ATOM     18  C   UNL     1      -5.812   1.537  -0.967  1.00  0.00    +0.201 C 
BRANCH  18  19
ATOM     19  O   UNL     1      -6.646   2.658  -1.205  1.00  0.00    -0.381 OA
ATOM     20  C   UNL     1      -7.116   3.188   0.016  1.00  0.00    +0.195 C 
ENDBRANCH  18  19
ENDBRANCH  17  18
ENDBRANCH  16  17
ENDBRANCH   2  16
BRANCH   7  21
ATOM     21  N   UNL     1       2.819  -0.324   0.368  1.00  0.00    -0.340 N 
ATOM     22  H   UNL     1       2.333  -1.201   0.665  1.00  0.00    +0.168 HD
BRANCH  21  23
ATOM     23  C   UNL     1       4.258  -0.334   0.376  1.00  0.00    +0.041 A 
ATOM     24  C   UNL     1       4.933  -1.292   1.146  1.00  0.00    +0.026 A 
ATOM     25  C   UNL     1       5.008   0.564  -0.407  1.00  0.00    +0.043 A 
ATOM     26  C   UNL     1       6.331  -1.328   1.167  1.00  0.00    +0.003 A 
ATOM     27  C   UNL     1       6.411   0.529  -0.380  1.00  0.00    +0.026 A 
ATOM     28  C   UNL     1       7.070  -0.413   0.421  1.00  0.00    +0.017 A 
ATOM     29  C   UNL     1       7.174   1.465  -1.164  1.00  0.00    -0.070 C 
ATOM     30  C   UNL     1       7.816   2.247  -1.822  1.00  0.00    +0.010 C 
ENDBRANCH  21  23
ENDBRANCH   7  21
TORSDOF 10
