REMARK SMILES Nc1ccn([C@@H]2O[C@H](CO)[C@@H](O)C2(F)F)c(=O)n1
REMARK SMILES IDX 6 1 13 2 11 3 8 4 7 5 14 6 15 7 5 8 3 9 4 10 2 11 18 12
REMARK SMILES IDX 16 13 17 14 1 15 12 18 9 20 10 21
REMARK H PARENT 1 16 1 17 12 19 10 22
ROOT
ATOM      1  C   UNL     1      -0.339  -0.521  -0.894  1.00  0.00    +0.297 C 
ATOM      2  C   UNL     1      -0.907  -1.581   0.065  1.00  0.00    +0.320 C 
ATOM      3  C   UNL     1      -2.155  -0.931   0.621  1.00  0.00    +0.220 C 
ATOM      4  C   UNL     1      -2.414   0.197  -0.373  1.00  0.00    +0.181 C 
ATOM      5  O   UNL     1      -1.168   0.622  -0.869  1.00  0.00    -0.343 OA
ATOM      6  F   UNL     1      -1.215  -2.737  -0.639  1.00  0.00    -0.198 F 
ATOM      7  F   UNL     1      -0.029  -1.901   1.089  1.00  0.00    -0.198 F 
ENDROOT
BRANCH   1   8
ATOM      8  N   UNL     1       1.055  -0.157  -0.557  1.00  0.00    -0.266 N 
ATOM      9  C   UNL     1       3.401  -0.382  -1.013  1.00  0.00    +0.065 A 
ATOM     10  C   UNL     1       2.073  -0.687  -1.303  1.00  0.00    +0.097 A 
ATOM     11  C   UNL     1       3.674   0.465   0.059  1.00  0.00    +0.130 A 
ATOM     12  N   UNL     1       2.649   0.961   0.795  1.00  0.00    -0.176 NA
ATOM     13  C   UNL     1       1.356   0.660   0.508  1.00  0.00    +0.351 A 
ATOM     14  O   UNL     1       0.445   1.134   1.237  1.00  0.00    -0.246 OA
BRANCH  11  15
ATOM     15  N   UNL     1       5.020   0.805   0.392  1.00  0.00    -0.383 N 
ATOM     16  H   UNL     1       5.822   0.430  -0.162  1.00  0.00    +0.158 HD
ATOM     17  H   UNL     1       5.218   1.438   1.199  1.00  0.00    +0.158 HD
ENDBRANCH  11  15
ENDBRANCH   1   8
BRANCH   3  18
ATOM     18  O   UNL     1      -3.228  -1.836   0.662  1.00  0.00    -0.384 OA
ATOM     19  H   UNL     1      -3.930  -1.417   1.225  1.00  0.00    +0.211 HD
ENDBRANCH   3  18
BRANCH   4  20
ATOM     20  C   UNL     1      -3.170   1.377   0.247  1.00  0.00    +0.191 C 
BRANCH  20  21
ATOM     21  O   UNL     1      -2.403   1.983   1.251  1.00  0.00    -0.394 OA
ATOM     22  H   UNL     1      -2.953   2.729   1.605  1.00  0.00    +0.210 HD
ENDBRANCH  20  21
ENDBRANCH   4  20
TORSDOF 5
