REMARK SMILES CCc1c(F)ccc2cc(O)cc(-c3nc4c5c(nc(OC[C@@]67CCCN6C[C@H](F)C7)nc5c3F)N3C[C@H]5CC[C@H](N5)[C@H]3CO4)c12
REMARK SMILES IDX 14 1 34 2 33 3 17 4 18 5 19 6 20 7 32 8 16 9 15 10 35 11
REMARK SMILES IDX 13 12 3 13 4 14 46 15 6 16 8 17 7 18 12 19 9 20 10 21 5 22
REMARK SMILES IDX 2 23 1 24 11 25 45 27 44 28 36 30 37 31 43 32 38 33 41 34
REMARK SMILES IDX 39 35 42 36 40 37 21 40 22 41 23 42 24 43 27 44 31 45 25 46
REMARK SMILES IDX 26 47 28 48 29 49 30 50
REMARK H PARENT 11 26 42 38
REMARK Flexibility Score:   62.900
ROOT
ATOM      1  C   UNL     1      -3.123  -1.088   1.282  1.00  0.00    +0.113 A 
ATOM      2  C   UNL     1      -1.864  -1.613   1.019  1.00  0.00    +0.176 A 
ATOM      3  C   UNL     1      -0.802  -0.749   0.741  1.00  0.00    +0.123 A 
ATOM      4  C   UNL     1      -0.980   0.670   0.725  1.00  0.00    +0.108 A 
ATOM      5  C   UNL     1       0.187   1.460   0.392  1.00  0.00    +0.149 A 
ATOM      6  N   UNL     1       1.354   0.793   0.147  1.00  0.00    -0.177 NA
ATOM      7  C   UNL     1       1.478  -0.550   0.190  1.00  0.00    +0.319 A 
ATOM      8  N   UNL     1       0.405  -1.305   0.480  1.00  0.00    -0.192 NA
ATOM      9  C   UNL     1      -2.294   1.141   1.067  1.00  0.00    +0.227 A 
ATOM     10  N   UNL     1      -3.278   0.253   1.364  1.00  0.00    -0.210 NA
ATOM     11  F   UNL     1      -1.667  -2.958   1.018  1.00  0.00    -0.202 F 
ENDROOT
BRANCH   1  12
ATOM     12  C   UNL     1      -4.263  -1.974   1.585  1.00  0.00    +0.015 A 
ATOM     13  C   UNL     1      -5.345  -2.009  -0.752  1.00  0.00    -0.004 A 
ATOM     14  C   UNL     1      -6.354  -2.569  -1.571  1.00  0.00    +0.127 A 
ATOM     15  C   UNL     1      -5.266  -2.400   0.641  1.00  0.00    -0.002 A 
ATOM     16  C   UNL     1      -7.302  -3.437  -1.053  1.00  0.00    +0.040 A 
ATOM     17  C   UNL     1      -6.271  -3.298   1.129  1.00  0.00    -0.014 A 
ATOM     18  C   UNL     1      -7.269  -3.794   0.282  1.00  0.00    +0.012 A 
ATOM     19  C   UNL     1      -4.303  -2.431   2.915  1.00  0.00    +0.057 A 
ATOM     20  C   UNL     1      -6.274  -3.726   2.465  1.00  0.00    +0.055 A 
ATOM     21  C   UNL     1      -5.301  -3.295   3.351  1.00  0.00    +0.116 A 
ATOM     22  F   UNL     1      -6.429  -2.267  -2.895  1.00  0.00    -0.207 F 
BRANCH  13  23
ATOM     23  C   UNL     1      -4.403  -1.047  -1.459  1.00  0.00    +0.036 C 
ATOM     24  C   UNL     1      -3.212  -1.779  -2.074  1.00  0.00    +0.009 C 
ENDBRANCH  13  23
BRANCH  21  25
ATOM     25  O   UNL     1      -5.328  -3.745   4.671  1.00  0.00    -0.508 OA
ATOM     26  H   UNL     1      -4.626  -3.460   5.343  1.00  0.00    +0.293 HD
ENDBRANCH  21  25
ENDBRANCH   1  12
BRANCH   9  27
ATOM     27  O   UNL     1      -2.683   2.470   1.116  1.00  0.00    -0.475 OA
BRANCH  27  28
ATOM     28  C   UNL     1      -2.139   3.497   0.328  1.00  0.00    +0.258 CG0
ATOM     29  G   UNL     1      -0.753   3.826   0.845  1.00  0.00    +0.000 G0
ENDBRANCH  27  28
ENDBRANCH   9  27
BRANCH   5  30
ATOM     30  N   UNL     1       0.245   2.914   0.245  1.00  0.00    -0.346 N 
ATOM     31  C   UNL     1       1.511   3.452  -0.335  1.00  0.00    +0.137 C 
ATOM     32  C   UNL     1      -0.753   3.826   0.845  1.00  0.00    +0.138 CG0
ATOM     33  C   UNL     1       1.556   4.989  -0.405  1.00  0.00    +0.073 C 
ATOM     34  C   UNL     1      -0.409   5.334   0.628  1.00  0.00    +0.080 C 
ATOM     35  C   UNL     1       0.648   5.518  -1.521  1.00  0.00    +0.022 C 
ATOM     36  N   UNL     1       1.020   5.498   0.850  1.00  0.00    -0.307 NA
ATOM     37  C   UNL     1      -0.652   5.829  -0.810  1.00  0.00    +0.023 C 
ATOM     38  H   UNL     1       1.237   6.523   0.914  1.00  0.00    +0.123 HD
ATOM     39  G   UNL     1      -2.139   3.497   0.328  1.00  0.00    +0.000 G0
ENDBRANCH   5  30
BRANCH   7  40
ATOM     40  O   UNL     1       2.705  -1.168  -0.065  1.00  0.00    -0.461 OA
BRANCH  40  41
ATOM     41  C   UNL     1       3.905  -0.434  -0.307  1.00  0.00    +0.255 C 
BRANCH  41  42
ATOM     42  C   UNL     1       5.090  -1.403  -0.514  1.00  0.00    +0.058 C 
ATOM     43  C   UNL     1       4.870  -2.265  -1.783  1.00  0.00    +0.027 C 
ATOM     44  N   UNL     1       6.304  -0.605  -0.737  1.00  0.00    -0.291 NA
ATOM     45  C   UNL     1       5.326  -2.259   0.761  1.00  0.00    +0.065 C 
ATOM     46  C   UNL     1       6.011  -1.911  -2.716  1.00  0.00    +0.018 C 
ATOM     47  C   UNL     1       7.041  -1.260  -1.825  1.00  0.00    +0.085 C 
ATOM     48  C   UNL     1       7.058  -0.602   0.522  1.00  0.00    +0.123 C 
ATOM     49  C   UNL     1       6.685  -1.853   1.296  1.00  0.00    +0.182 C 
ATOM     50  F   UNL     1       7.611  -2.853   1.056  1.00  0.00    -0.246 F 
ENDBRANCH  41  42
ENDBRANCH  40  41
ENDBRANCH   7  40
TORSDOF 6
