REMARK SMILES NC(=O)NO
REMARK SMILES IDX 2 1 3 2 1 3 4 4 5 8
REMARK H PARENT 1 5 1 6 4 7 5 9
ROOT
ATOM      1  C   UNL     1      -0.269   0.442  -0.177  1.00  0.00    +0.335 C 
ATOM      2  O   UNL     1      -0.074   1.598  -0.640  1.00  0.00    -0.247 OA
ATOM      3  N   UNL     1      -1.545   0.102   0.362  1.00  0.00    -0.350 N 
ATOM      4  N   UNL     1       0.785  -0.522  -0.192  1.00  0.00    -0.220 N 
ATOM      5  H   UNL     1      -2.318   0.804   0.375  1.00  0.00    +0.161 HD
ATOM      6  H   UNL     1      -1.720  -0.852   0.750  1.00  0.00    +0.161 HD
ATOM      7  H   UNL     1       0.619  -1.484   0.181  1.00  0.00    +0.200 HD
ENDROOT
BRANCH   4   8
ATOM      8  O   UNL     1       1.996  -0.213  -0.713  1.00  0.00    -0.287 OA
ATOM      9  H   UNL     1       2.525   0.124   0.055  1.00  0.00    +0.246 HD
ENDBRANCH   4   8
TORSDOF 1
