REMARK SMILES CCc1c2c(nc3ccc(OC(=O)N4CCC(N5CCCCC5)CC4)cc13)-c1cc3c(c(=O)n1C2)COC(=O)[C@]3(O)CC
REMARK SMILES IDX 3 1 4 2 35 3 34 4 28 5 29 6 30 7 31 8 32 9 33 10 36 11 37 12
REMARK SMILES IDX 38 13 39 14 40 15 5 16 6 17 7 18 27 19 26 20 10 21 9 22 8 23
REMARK SMILES IDX 2 24 1 25 11 26 12 27 13 28 14 29 15 30 25 31 16 32 24 33
REMARK SMILES IDX 17 34 18 35 19 36 23 37 20 38 22 39 21 40 42 41 43 42 41 43
REMARK H PARENT 41 44
ROOT
ATOM      1  C   UNL     1      -2.090   0.504  -1.166  1.00  0.00    -0.031 A 
ATOM      2  C   UNL     1      -3.475   0.278  -1.166  1.00  0.00    +0.004 A 
ATOM      3  C   UNL     1      -4.478   0.367  -2.288  1.00  0.00    +0.164 C 
ATOM      4  N   UNL     1      -5.730  -0.023  -1.629  1.00  0.00    -0.302 N 
ATOM      5  C   UNL     1      -5.515  -0.297  -0.328  1.00  0.00    +0.071 A 
ATOM      6  C   UNL     1      -6.541  -0.707   0.515  1.00  0.00    +0.036 A 
ATOM      7  C   UNL     1      -7.837  -0.854  -0.023  1.00  0.00    +0.009 A 
ATOM      8  C   UNL     1      -8.051  -0.540  -1.394  1.00  0.00    +0.062 A 
ATOM      9  C   UNL     1      -6.964  -0.116  -2.191  1.00  0.00    +0.258 A 
ATOM     10  O   UNL     1      -7.128   0.182  -3.406  1.00  0.00    -0.269 OA
ATOM     11  C   UNL     1      -9.452  -0.581  -1.949  1.00  0.00    +0.275 C 
ATOM     12  O   UNL     1     -10.208  -1.616  -1.330  1.00  0.00    -0.458 OA
ATOM     13  C   UNL     1     -10.074  -1.927   0.025  1.00  0.00    +0.343 C 
ATOM     14  O   UNL     1     -10.849  -2.780   0.538  1.00  0.00    -0.248 OA
ATOM     15  C   UNL     1      -9.013  -1.252   0.871  1.00  0.00    +0.187 C 
ATOM     16  C   UNL     1      -4.121  -0.103  -0.018  1.00  0.00    +0.093 A 
ATOM     17  N   UNL     1      -3.488  -0.240   1.168  1.00  0.00    -0.246 NA
ATOM     18  C   UNL     1      -2.146  -0.023   1.241  1.00  0.00    +0.072 A 
ATOM     19  C   UNL     1      -1.401   0.335   0.074  1.00  0.00    +0.007 A 
ATOM     20  C   UNL     1      -0.004   0.493   0.195  1.00  0.00    +0.058 A 
ATOM     21  C   UNL     1       0.630   0.301   1.431  1.00  0.00    +0.133 A 
ATOM     22  C   UNL     1      -0.123   0.009   2.569  1.00  0.00    +0.049 A 
ATOM     23  C   UNL     1      -1.503  -0.160   2.473  1.00  0.00    +0.033 A 
ENDROOT
BRANCH   1  24
ATOM     24  C   UNL     1      -1.407   0.973  -2.435  1.00  0.00    +0.033 C 
ATOM     25  C   UNL     1      -1.219   2.486  -2.419  1.00  0.00    +0.009 C 
ENDBRANCH   1  24
BRANCH  21  26
ATOM     26  O   UNL     1       2.021   0.375   1.527  1.00  0.00    -0.410 OA
BRANCH  26  27
ATOM     27  C   UNL     1       2.845  -0.657   1.053  1.00  0.00    +0.415 C 
ATOM     28  O   UNL     1       2.326  -1.717   0.597  1.00  0.00    -0.224 OA
ATOM     29  N   UNL     1       4.277  -0.522   1.108  1.00  0.00    -0.308 N 
ATOM     30  C   UNL     1       4.885   0.744   1.518  1.00  0.00    +0.124 C 
ATOM     31  C   UNL     1       5.138  -1.707   1.099  1.00  0.00    +0.124 C 
ATOM     32  C   UNL     1       6.132   1.024   0.681  1.00  0.00    +0.041 C 
ATOM     33  C   UNL     1       6.410  -1.452   0.283  1.00  0.00    +0.041 C 
ATOM     34  C   UNL     1       7.147  -0.150   0.708  1.00  0.00    +0.060 C 
BRANCH  34  35
ATOM     35  N   UNL     1       8.314   0.167  -0.177  1.00  0.00    -0.300 NA
ATOM     36  C   UNL     1       9.256  -0.965  -0.342  1.00  0.00    +0.085 C 
ATOM     37  C   UNL     1       9.029   1.382   0.318  1.00  0.00    +0.085 C 
ATOM     38  C   UNL     1      10.315  -0.660  -1.419  1.00  0.00    +0.016 C 
ATOM     39  C   UNL     1      10.502   1.480  -0.123  1.00  0.00    +0.016 C 
ATOM     40  C   UNL     1      10.693   0.824  -1.481  1.00  0.00    +0.003 C 
ENDBRANCH  34  35
ENDBRANCH  26  27
ENDBRANCH  21  26
BRANCH  15  41
ATOM     41  C   UNL     1      -9.595   0.032   1.532  1.00  0.00    +0.049 C 
ATOM     42  C   UNL     1     -10.759  -0.241   2.488  1.00  0.00    +0.008 C 
ENDBRANCH  15  41
BRANCH  15  43
ATOM     43  O   UNL     1      -8.588  -2.187   1.841  1.00  0.00    -0.374 OA
ATOM     44  H   UNL     1      -8.157  -1.701   2.592  1.00  0.00    +0.212 HD
ENDBRANCH  15  43
TORSDOF 6
