REMARK SMILES C=CC(=O)N1CC2(CC(n3nc(-c4ccc5c(cnn5C)c4)c(-c4c(Cl)c(C)cc5[nH]ncc45)c3C)C2)C1
REMARK SMILES IDX 23 1 35 2 10 3 11 4 12 5 36 6 24 7 27 8 29 9 25 10 30 11
REMARK SMILES IDX 34 12 31 13 33 14 32 15 28 16 26 17 13 19 22 20 14 21 17 22
REMARK SMILES IDX 15 23 16 24 18 25 20 26 19 27 21 28 9 29 8 30 37 31 7 32
REMARK SMILES IDX 6 33 38 34 5 35 3 36 4 37 2 38 1 39
REMARK H PARENT 31 18
ROOT
ATOM      1  C   UNL     1      -0.880   0.390  -0.220  1.00  0.00    +0.033 A 
ATOM      2  C   UNL     1       0.501   0.546  -0.233  1.00  0.00    +0.044 A 
ATOM      3  N   UNL     1       1.070  -0.676  -0.021  1.00  0.00    -0.266 N 
ATOM      4  N   UNL     1       0.108  -1.581   0.081  1.00  0.00    -0.172 NA
ATOM      5  C   UNL     1      -1.079  -0.968  -0.040  1.00  0.00    +0.101 A 
ATOM      6  C   UNL     1       1.209   1.865  -0.401  1.00  0.00    +0.067 C 
ENDROOT
BRANCH   1   7
ATOM      7  C   UNL     1      -1.925   1.424  -0.360  1.00  0.00    +0.016 A 
ATOM      8  C   UNL     1      -3.972   2.312  -1.427  1.00  0.00    -0.030 A 
ATOM      9  C   UNL     1      -4.094   3.270  -0.397  1.00  0.00    +0.033 A 
ATOM     10  C   UNL     1      -2.875   1.392  -1.420  1.00  0.00    +0.052 A 
ATOM     11  C   UNL     1      -3.131   3.285   0.600  1.00  0.00    +0.066 A 
ATOM     12  C   UNL     1      -2.095   2.401   0.623  1.00  0.00    +0.029 A 
ATOM     13  N   UNL     1      -3.087   4.057   1.694  1.00  0.00    -0.278 N 
ATOM     14  C   UNL     1      -1.419   2.669   1.798  1.00  0.00    +0.144 A 
ATOM     15  N   UNL     1      -2.045   3.686   2.430  1.00  0.00    -0.183 NA
ATOM     16  C   UNL     1      -5.039   2.290  -2.490  1.00  0.00    +0.046 C 
ATOM     17 Cl   UNL     1      -2.668   0.223  -2.729  1.00  0.00    -0.083 Cl
ATOM     18  H   UNL     1      -3.759   4.810   1.958  1.00  0.00    +0.190 HD
ENDBRANCH   1   7
BRANCH   5  19
ATOM     19  C   UNL     1      -2.363  -1.675   0.119  1.00  0.00    +0.003 A 
ATOM     20  C   UNL     1      -3.356  -1.170   0.996  1.00  0.00    +0.022 A 
ATOM     21  C   UNL     1      -2.557  -2.923  -0.529  1.00  0.00    +0.013 A 
ATOM     22  C   UNL     1      -4.492  -1.944   1.195  1.00  0.00    +0.021 A 
ATOM     23  C   UNL     1      -3.726  -3.669  -0.309  1.00  0.00    +0.029 A 
ATOM     24  C   UNL     1      -4.677  -3.145   0.572  1.00  0.00    +0.068 A 
ATOM     25  C   UNL     1      -5.579  -1.785   2.025  1.00  0.00    +0.143 A 
ATOM     26  N   UNL     1      -5.824  -3.697   1.010  1.00  0.00    -0.268 N 
ATOM     27  N   UNL     1      -6.375  -2.878   1.910  1.00  0.00    -0.181 NA
ATOM     28  C   UNL     1      -6.339  -5.020   0.682  1.00  0.00    +0.174 C 
ENDBRANCH   5  19
BRANCH   3  29
ATOM     29  C   UNL     1       2.474  -1.091   0.123  1.00  0.00    +0.109 C 
ATOM     30  C   UNL     1       3.371  -0.209   1.009  1.00  0.00    +0.038 C 
ATOM     31  C   UNL     1       3.354  -0.846  -1.114  1.00  0.00    +0.038 C 
ATOM     32  C   UNL     1       4.302  -0.089  -0.190  1.00  0.00    +0.010 C 
ATOM     33  C   UNL     1       4.922   1.205  -0.589  1.00  0.00    +0.128 C 
ATOM     34  C   UNL     1       5.708  -0.564  -0.055  1.00  0.00    +0.128 C 
ATOM     35  N   UNL     1       6.320   0.721  -0.461  1.00  0.00    -0.338 N 
ATOM     36  C   UNL     1       7.644   1.227  -0.624  1.00  0.00    +0.245 C 
ATOM     37  O   UNL     1       7.810   2.432  -0.960  1.00  0.00    -0.270 OA
BRANCH  36  38
ATOM     38  C   UNL     1       8.795   0.336  -0.399  1.00  0.00    +0.063 C 
ATOM     39  C   UNL     1      10.055   0.730  -0.581  1.00  0.00    +0.014 C 
ENDBRANCH  36  38
ENDBRANCH   3  29
TORSDOF 4
