REMARK SMILES O=C(Nc1cnn2ccc(N3CCC[C@@H]3c3cc(F)ccc3F)nc12)N1CC[C@H](O)C1
REMARK SMILES IDX 10 1 24 2 25 3 4 4 5 5 6 6 7 7 8 8 9 9 11 10 13 11 14 12
REMARK SMILES IDX 12 13 15 14 16 15 22 16 17 17 21 18 18 19 20 20 23 21 19 22
REMARK SMILES IDX 3 23 2 24 1 25 26 27 27 28 31 29 28 30 29 31 30 32
REMARK H PARENT 3 26 30 33
ROOT
ATOM      1  C   UNL     1      -1.732  -0.577  -1.032  1.00  0.00    +0.133 A 
ATOM      2  N   UNL     1      -0.406  -0.680  -0.707  1.00  0.00    -0.209 NA
ATOM      3  C   UNL     1       0.074  -1.866  -0.271  1.00  0.00    +0.181 A 
ATOM      4  C   UNL     1       1.326  -2.165   0.177  1.00  0.00    +0.108 A 
ATOM      5  C   UNL     1       1.236  -3.482   0.625  1.00  0.00    +0.164 A 
ATOM      6  N   UNL     1      -0.029  -3.933   0.418  1.00  0.00    -0.173 NA
ATOM      7  N   UNL     1      -0.712  -2.935  -0.122  1.00  0.00    -0.220 N 
ATOM      8  C   UNL     1      -2.023  -2.923  -0.457  1.00  0.00    +0.119 A 
ATOM      9  C   UNL     1      -2.564  -1.723  -0.941  1.00  0.00    +0.067 A 
ENDROOT
BRANCH   1  10
ATOM     10  N   UNL     1      -2.266   0.705  -1.418  1.00  0.00    -0.349 N 
ATOM     11  C   UNL     1      -2.345   2.902  -2.315  1.00  0.00    +0.024 C 
ATOM     12  C   UNL     1      -3.712   2.569  -1.730  1.00  0.00    +0.032 C 
ATOM     13  C   UNL     1      -1.410   1.806  -1.823  1.00  0.00    +0.119 C 
ATOM     14  C   UNL     1      -3.679   1.067  -1.424  1.00  0.00    +0.117 C 
BRANCH  14  15
ATOM     15  C   UNL     1      -4.344   0.751  -0.097  1.00  0.00    +0.013 A 
ATOM     16  C   UNL     1      -5.582   0.074  -0.050  1.00  0.00    +0.128 A 
ATOM     17  C   UNL     1      -3.715   1.112   1.111  1.00  0.00    +0.048 A 
ATOM     18  C   UNL     1      -6.156  -0.252   1.181  1.00  0.00    +0.042 A 
ATOM     19  C   UNL     1      -4.298   0.780   2.335  1.00  0.00    +0.123 A 
ATOM     20  C   UNL     1      -5.515   0.095   2.371  1.00  0.00    +0.042 A 
ATOM     21  F   UNL     1      -6.234  -0.267  -1.192  1.00  0.00    -0.207 F 
ATOM     22  F   UNL     1      -3.680   1.129   3.491  1.00  0.00    -0.207 F 
ENDBRANCH  14  15
ENDBRANCH   1  10
BRANCH   4  23
ATOM     23  N   UNL     1       2.476  -1.318   0.148  1.00  0.00    -0.303 N 
ATOM     24  C   UNL     1       3.383  -1.217   1.252  1.00  0.00    +0.322 C 
ATOM     25  O   UNL     1       3.077  -1.714   2.372  1.00  0.00    -0.248 OA
ATOM     26  H   UNL     1       2.563  -0.629  -0.638  1.00  0.00    +0.172 HD
BRANCH  24  27
ATOM     27  N   UNL     1       4.618  -0.501   1.106  1.00  0.00    -0.322 N 
ATOM     28  C   UNL     1       5.341   0.085   2.222  1.00  0.00    +0.124 C 
ATOM     29  C   UNL     1       5.274  -0.274  -0.175  1.00  0.00    +0.153 C 
ATOM     30  C   UNL     1       6.475   0.876   1.585  1.00  0.00    +0.055 C 
ATOM     31  C   UNL     1       6.640   0.299   0.178  1.00  0.00    +0.135 C 
BRANCH  31  32
ATOM     32  O   UNL     1       7.004   1.292  -0.742  1.00  0.00    -0.391 OA
ATOM     33  H   UNL     1       7.992   1.402  -0.668  1.00  0.00    +0.211 HD
ENDBRANCH  31  32
ENDBRANCH  24  27
ENDBRANCH   4  23
TORSDOF 5
