REMARK SMILES Nc1nc2c(c(=O)[nH]1)N(C=O)C(CNc1ccc(C(=O)N[C@@H](CCC(=O)O)C(=O)O)cc1)CN2
REMARK SMILES IDX 19 1 20 2 21 3 18 5 15 6 16 7 32 8 17 9 31 10 14 11 13 13
REMARK SMILES IDX 12 14 33 15 34 16 9 17 4 18 5 19 3 20 6 21 2 22 8 23 7 24
REMARK SMILES IDX 10 27 11 28 1 29 22 32 23 33 24 34 25 35 26 36 27 37 28 39
REMARK SMILES IDX 29 40 30 41
REMARK H PARENT 21 4 14 12 34 25 8 26 1 30 1 31 27 38 30 42
ROOT
ATOM      1  C   UNL     1      -3.952   0.028   0.902  1.00  0.00    +0.251 C 
ATOM      2  O   UNL     1      -4.453   0.382   2.006  1.00  0.00    -0.269 OA
ATOM      3  N   UNL     1      -4.818  -0.239  -0.218  1.00  0.00    -0.339 N 
ATOM      4  H   UNL     1      -4.401  -0.474  -1.153  1.00  0.00    +0.164 HD
ENDROOT
BRANCH   1   5
ATOM      5  C   UNL     1      -2.473  -0.062   0.775  1.00  0.00    +0.039 A 
ATOM      6  C   UNL     1       0.344  -0.168   0.539  1.00  0.00    +0.034 A 
ATOM      7  C   UNL     1      -0.475  -0.916  -0.327  1.00  0.00    +0.026 A 
ATOM      8  C   UNL     1      -0.258   0.604   1.545  1.00  0.00    +0.026 A 
ATOM      9  C   UNL     1      -1.865  -0.872  -0.205  1.00  0.00    +0.016 A 
ATOM     10  C   UNL     1      -1.649   0.657   1.663  1.00  0.00    +0.016 A 
BRANCH   6  11
ATOM     11  N   UNL     1       1.781  -0.186   0.429  1.00  0.00    -0.383 N 
ATOM     12  H   UNL     1       2.329   0.375   1.121  1.00  0.00    +0.160 HD
BRANCH  11  13
ATOM     13  C   UNL     1       2.499  -0.926  -0.618  1.00  0.00    +0.140 C 
BRANCH  13  14
ATOM     14  C   UNL     1       4.040  -0.858  -0.467  1.00  0.00    +0.129 C 
ATOM     15  C   UNL     1       4.468  -1.621   0.803  1.00  0.00    +0.141 C 
ATOM     16  N   UNL     1       5.915  -1.570   0.965  1.00  0.00    -0.366 N 
ATOM     17  N   UNL     1       4.624   0.511  -0.461  1.00  0.00    -0.300 N 
ATOM     18  C   UNL     1       6.661  -0.412   0.578  1.00  0.00    +0.159 A 
ATOM     19  C   UNL     1       6.035   0.629  -0.130  1.00  0.00    +0.153 A 
ATOM     20  N   UNL     1       7.986  -0.342   0.873  1.00  0.00    -0.195 NA
ATOM     21  C   UNL     1       6.851   1.705  -0.556  1.00  0.00    +0.278 A 
ATOM     22  C   UNL     1       8.740   0.718   0.481  1.00  0.00    +0.202 A 
ATOM     23  N   UNL     1       8.171   1.725  -0.234  1.00  0.00    -0.291 N 
ATOM     24  O   UNL     1       6.385   2.638  -1.261  1.00  0.00    -0.267 OA
ATOM     25  H   UNL     1       6.401  -2.354   1.448  1.00  0.00    +0.162 HD
ATOM     26  H   UNL     1       8.755   2.530  -0.545  1.00  0.00    +0.173 HD
BRANCH  17  27
ATOM     27  C   UNL     1       3.856   1.698  -0.750  1.00  0.00    +0.345 C 
ATOM     28  O   UNL     1       3.023   1.721  -1.694  1.00  0.00    -0.278 OA
ENDBRANCH  17  27
BRANCH  22  29
ATOM     29  N   UNL     1      10.128   0.761   0.809  1.00  0.00    -0.369 N 
ATOM     30  H   UNL     1      10.554  -0.007   1.373  1.00  0.00    +0.159 HD
ATOM     31  H   UNL     1      10.720   1.561   0.494  1.00  0.00    +0.159 HD
ENDBRANCH  22  29
ENDBRANCH  13  14
ENDBRANCH  11  13
ENDBRANCH   6  11
ENDBRANCH   1   5
BRANCH   3  32
ATOM     32  C   UNL     1      -6.280  -0.255  -0.098  1.00  0.00    +0.192 C 
BRANCH  32  33
ATOM     33  C   UNL     1      -6.917   0.115  -1.456  1.00  0.00    +0.049 C 
BRANCH  33  34
ATOM     34  C   UNL     1      -8.446   0.269  -1.401  1.00  0.00    +0.125 C 
BRANCH  34  35
ATOM     35  C   UNL     1      -8.861   1.476  -0.618  1.00  0.00    +0.303 C 
ATOM     36  O   UNL     1      -8.759   2.624  -1.131  1.00  0.00    -0.252 OA
BRANCH  35  37
ATOM     37  O   UNL     1      -9.337   1.332   0.681  1.00  0.00    -0.481 OA
ATOM     38  H   UNL     1      -9.621   2.141   1.220  1.00  0.00    +0.296 HD
ENDBRANCH  35  37
ENDBRANCH  34  35
ENDBRANCH  33  34
ENDBRANCH  32  33
BRANCH  32  39
ATOM     39  C   UNL     1      -6.728  -1.620   0.353  1.00  0.00    +0.326 C 
ATOM     40  O   UNL     1      -7.673  -1.730   1.185  1.00  0.00    -0.250 OA
BRANCH  39  41
ATOM     41  O   UNL     1      -6.167  -2.758  -0.214  1.00  0.00    -0.480 OA
ATOM     42  H   UNL     1      -6.489  -3.678   0.057  1.00  0.00    +0.296 HD
ENDBRANCH  39  41
ENDBRANCH  32  39
ENDBRANCH   3  32
TORSDOF 13
