REMARK SMILES CN(Cc1cnc2nc(N)nc(N)c2n1)c1ccc(C(=O)N[C@@H](CCC(=O)O)C(=O)O)cc1
REMARK SMILES IDX 20 1 21 2 22 3 19 5 16 6 17 7 33 8 18 9 32 10 2 11 1 12 3 13
REMARK SMILES IDX 4 14 5 15 15 16 6 17 14 18 7 19 12 20 8 21 11 22 9 23 13 24
REMARK SMILES IDX 10 27 23 30 24 31 25 32 26 33 27 34 28 35 29 37 30 38 31 39
REMARK H PARENT 22 4 13 25 13 26 10 28 10 29 28 36 31 40
ROOT
ATOM      1  C   UNL     1      -2.766  -1.364   0.435  1.00  0.00    +0.251 C 
ATOM      2  O   UNL     1      -2.599  -2.481   1.003  1.00  0.00    -0.269 OA
ATOM      3  N   UNL     1      -4.096  -0.827   0.294  1.00  0.00    -0.339 N 
ATOM      4  H   UNL     1      -4.231   0.059  -0.244  1.00  0.00    +0.164 HD
ENDROOT
BRANCH   1   5
ATOM      5  C   UNL     1      -1.592  -0.658  -0.141  1.00  0.00    +0.039 A 
ATOM      6  C   UNL     1       0.580   0.626  -1.443  1.00  0.00    +0.037 A 
ATOM      7  C   UNL     1      -0.563   1.350  -1.047  1.00  0.00    +0.027 A 
ATOM      8  C   UNL     1       0.642  -0.740  -1.101  1.00  0.00    +0.027 A 
ATOM      9  C   UNL     1      -1.626   0.723  -0.394  1.00  0.00    +0.016 A 
ATOM     10  C   UNL     1      -0.431  -1.372  -0.469  1.00  0.00    +0.016 A 
BRANCH   6  11
ATOM     11  N   UNL     1       1.633   1.265  -2.213  1.00  0.00    -0.369 N 
ATOM     12  C   UNL     1       1.725   2.732  -2.287  1.00  0.00    +0.144 C 
BRANCH  11  13
ATOM     13  C   UNL     1       2.630   0.487  -2.965  1.00  0.00    +0.174 C 
BRANCH  13  14
ATOM     14  C   UNL     1       3.911   0.398  -2.189  1.00  0.00    +0.079 A 
ATOM     15  C   UNL     1       4.989   1.253  -2.469  1.00  0.00    +0.139 A 
ATOM     16  N   UNL     1       4.004  -0.468  -1.143  1.00  0.00    -0.242 NA
ATOM     17  N   UNL     1       6.109   1.204  -1.701  1.00  0.00    -0.233 NA
ATOM     18  C   UNL     1       5.115  -0.510  -0.363  1.00  0.00    +0.150 A 
ATOM     19  C   UNL     1       6.196   0.344  -0.652  1.00  0.00    +0.185 A 
ATOM     20  C   UNL     1       5.223  -1.379   0.736  1.00  0.00    +0.157 A 
ATOM     21  N   UNL     1       7.304   0.328   0.133  1.00  0.00    -0.191 NA
ATOM     22  N   UNL     1       6.358  -1.359   1.487  1.00  0.00    -0.194 NA
ATOM     23  C   UNL     1       7.386  -0.514   1.200  1.00  0.00    +0.224 A 
BRANCH  20  24
ATOM     24  N   UNL     1       4.167  -2.284   1.078  1.00  0.00    -0.382 N 
ATOM     25  H   UNL     1       3.374  -2.449   0.424  1.00  0.00    +0.158 HD
ATOM     26  H   UNL     1       4.221  -2.836   1.958  1.00  0.00    +0.158 HD
ENDBRANCH  20  24
BRANCH  23  27
ATOM     27  N   UNL     1       8.563  -0.528   2.005  1.00  0.00    -0.368 N 
ATOM     28  H   UNL     1       8.631  -1.145   2.848  1.00  0.00    +0.159 HD
ATOM     29  H   UNL     1       9.378   0.073   1.748  1.00  0.00    +0.159 HD
ENDBRANCH  23  27
ENDBRANCH  13  14
ENDBRANCH  11  13
ENDBRANCH   6  11
ENDBRANCH   1   5
BRANCH   3  30
ATOM     30  C   UNL     1      -5.242  -1.381   1.023  1.00  0.00    +0.192 C 
BRANCH  30  31
ATOM     31  C   UNL     1      -5.243  -0.896   2.489  1.00  0.00    +0.049 C 
BRANCH  31  32
ATOM     32  C   UNL     1      -5.143   0.631   2.665  1.00  0.00    +0.125 C 
BRANCH  32  33
ATOM     33  C   UNL     1      -6.383   1.357   2.238  1.00  0.00    +0.303 C 
ATOM     34  O   UNL     1      -6.350   2.158   1.264  1.00  0.00    -0.252 OA
BRANCH  33  35
ATOM     35  O   UNL     1      -7.584   1.131   2.906  1.00  0.00    -0.481 OA
ATOM     36  H   UNL     1      -8.433   1.613   2.637  1.00  0.00    +0.296 HD
ENDBRANCH  33  35
ENDBRANCH  32  33
ENDBRANCH  31  32
ENDBRANCH  30  31
BRANCH  30  37
ATOM     37  C   UNL     1      -6.548  -1.099   0.322  1.00  0.00    +0.326 C 
ATOM     38  O   UNL     1      -7.611  -1.645   0.726  1.00  0.00    -0.250 OA
BRANCH  37  39
ATOM     39  O   UNL     1      -6.599  -0.222  -0.759  1.00  0.00    -0.480 OA
ATOM     40  H   UNL     1      -7.480  -0.030  -1.221  1.00  0.00    +0.296 HD
ENDBRANCH  37  39
ENDBRANCH  30  37
ENDBRANCH   3  30
TORSDOF 13
