REMARK SMILES CO[C@@]12[C@H](COC(N)=O)C3=C(C(=O)C(C)=C(N)C3=O)N1C[C@@H]1N[C@@H]12
REMARK SMILES IDX 5 1 4 2 14 3 16 4 12 5 18 6 11 7 13 8 19 9 10 10 20 11 21 12
REMARK SMILES IDX 3 13 22 14 24 15 23 16 15 17 17 19 2 22 1 23 6 24 7 25 9 26
REMARK SMILES IDX 8 27
REMARK H PARENT 23 18 17 20 17 21 8 28 8 29
ROOT
ATOM      1  C   UNL     1      -1.176  -1.603   0.899  1.00  0.00    +0.248 C 
ENDROOT
BRANCH   1   2
ATOM      2  C   UNL     1      -0.782  -0.829  -0.372  1.00  0.00    +0.118 C 
ATOM      3  C   UNL     1       3.499  -0.262  -1.106  1.00  0.00    +0.026 C 
ATOM      4  C   UNL     1       3.079  -1.555  -1.044  1.00  0.00    +0.087 C 
ATOM      5  C   UNL     1       2.505   0.841  -0.936  1.00  0.00    +0.207 C 
ATOM      6  C   UNL     1       1.651  -1.860  -0.750  1.00  0.00    +0.207 C 
ATOM      7  C   UNL     1       1.101   0.500  -0.653  1.00  0.00    +0.095 C 
ATOM      8  O   UNL     1       2.848   2.051  -1.048  1.00  0.00    -0.287 OA
ATOM      9  O   UNL     1       1.246  -3.052  -0.707  1.00  0.00    -0.287 OA
ATOM     10  C   UNL     1       0.705  -0.748  -0.544  1.00  0.00    +0.041 C 
ATOM     11  N   UNL     1       0.031   1.428  -0.551  1.00  0.00    -0.336 N 
ATOM     12  C   UNL     1       0.070   2.570   0.352  1.00  0.00    +0.140 C 
ATOM     13  C   UNL     1      -1.221   0.683  -0.446  1.00  0.00    +0.168 C 
ATOM     14  C   UNL     1      -1.186   2.443   1.206  1.00  0.00    +0.095 C 
ATOM     15  C   UNL     1      -1.936   1.255   0.797  1.00  0.00    +0.127 C 
ATOM     16  N   UNL     1      -1.147   1.238   2.050  1.00  0.00    -0.302 NA
ATOM     17  C   UNL     1       4.942   0.082  -1.393  1.00  0.00    +0.051 C 
ATOM     18  H   UNL     1      -1.815   1.378   2.844  1.00  0.00    +0.123 HD
BRANCH   4  19
ATOM     19  N   UNL     1       3.982  -2.645  -1.290  1.00  0.00    -0.395 N 
ATOM     20  H   UNL     1       4.870  -2.515  -1.828  1.00  0.00    +0.156 HD
ATOM     21  H   UNL     1       3.699  -3.628  -1.073  1.00  0.00    +0.156 HD
ENDBRANCH   4  19
BRANCH  13  22
ATOM     22  O   UNL     1      -2.029   0.842  -1.613  1.00  0.00    -0.356 OA
ATOM     23  C   UNL     1      -2.187   2.189  -2.015  1.00  0.00    +0.198 C 
ENDBRANCH  13  22
ENDBRANCH   1   2
BRANCH   1  24
ATOM     24  O   UNL     1      -2.594  -1.599   1.041  1.00  0.00    -0.449 OA
BRANCH  24  25
ATOM     25  C   UNL     1      -3.244  -2.056   2.193  1.00  0.00    +0.404 C 
ATOM     26  O   UNL     1      -2.582  -2.425   3.206  1.00  0.00    -0.225 OA
ATOM     27  N   UNL     1      -4.668  -2.094   2.228  1.00  0.00    -0.335 N 
ATOM     28  H   UNL     1      -5.224  -1.837   1.380  1.00  0.00    +0.163 HD
ATOM     29  H   UNL     1      -5.163  -2.423   3.085  1.00  0.00    +0.163 HD
ENDBRANCH  24  25
ENDBRANCH   1  24
TORSDOF 5
