REMARK SMILES Cn1ncc(-c2ccc3c(=O)[nH]nc(CN)c3c2)c1-c1c(F)c(Cl)cc(OC2CC2)c1C#N
REMARK SMILES IDX 6 1 18 2 17 3 9 4 8 5 7 6 10 7 11 8 12 9 13 10 14 11 5 13
REMARK SMILES IDX 2 14 19 15 3 16 4 17 1 18 20 19 31 20 21 21 26 22 32 23
REMARK SMILES IDX 23 24 25 25 33 26 22 27 24 28 27 29 28 30 29 31 30 32 15 33
REMARK SMILES IDX 16 34
REMARK H PARENT 12 12 16 35 16 36
ROOT
ATOM      1  C   UNL     1      -1.503  -0.442   0.466  1.00  0.00    -0.014 A 
ATOM      2  C   UNL     1      -2.821  -0.267   0.024  1.00  0.00    +0.019 A 
ATOM      3  C   UNL     1      -3.569   0.865   0.407  1.00  0.00    +0.012 A 
ATOM      4  C   UNL     1      -2.977   1.820   1.270  1.00  0.00    +0.050 A 
ATOM      5  C   UNL     1      -1.641   1.652   1.690  1.00  0.00    +0.015 A 
ATOM      6  C   UNL     1      -0.905   0.538   1.275  1.00  0.00    +0.010 A 
ATOM      7  C   UNL     1      -3.746   2.917   1.693  1.00  0.00    +0.272 A 
ATOM      8  O   UNL     1      -3.264   3.776   2.480  1.00  0.00    -0.267 OA
ATOM      9  N   UNL     1      -5.025   3.057   1.248  1.00  0.00    -0.243 N 
ATOM     10  N   UNL     1      -5.565   2.182   0.402  1.00  0.00    -0.176 NA
ATOM     11  C   UNL     1      -4.894   1.086  -0.044  1.00  0.00    +0.082 A 
ATOM     12  H   UNL     1      -5.598   3.872   1.566  1.00  0.00    +0.194 HD
ENDROOT
BRANCH   1  13
ATOM     13  C   UNL     1      -0.761  -1.656   0.084  1.00  0.00    +0.028 A 
ATOM     14  N   UNL     1       0.775  -3.072  -0.656  1.00  0.00    -0.267 N 
ATOM     15  C   UNL     1       0.535  -1.767  -0.397  1.00  0.00    +0.080 A 
ATOM     16  N   UNL     1      -0.284  -3.796  -0.326  1.00  0.00    -0.181 NA
ATOM     17  C   UNL     1      -1.238  -2.954   0.116  1.00  0.00    +0.144 A 
ATOM     18  C   UNL     1       1.983  -3.653  -1.238  1.00  0.00    +0.174 C 
BRANCH  15  19
ATOM     19  C   UNL     1       1.452  -0.656  -0.751  1.00  0.00    +0.059 A 
ATOM     20  C   UNL     1       2.704  -0.501  -0.103  1.00  0.00    +0.106 A 
ATOM     21  C   UNL     1       1.070   0.238  -1.764  1.00  0.00    +0.152 A 
ATOM     22  C   UNL     1       3.591   0.525  -0.533  1.00  0.00    +0.139 A 
ATOM     23  C   UNL     1       3.015  -1.372   1.010  1.00  0.00    +0.104 C 
ATOM     24  C   UNL     1       1.940   1.252  -2.170  1.00  0.00    +0.081 A 
ATOM     25  C   UNL     1       3.192   1.381  -1.567  1.00  0.00    +0.071 A 
ATOM     26  N   UNL     1       3.245  -2.080   1.900  1.00  0.00    -0.192 NA
ATOM     27  F   UNL     1      -0.132   0.099  -2.386  1.00  0.00    -0.205 F 
ATOM     28 Cl   UNL     1       1.466   2.378  -3.431  1.00  0.00    -0.081 Cl
BRANCH  22  29
ATOM     29  O   UNL     1       4.879   0.760  -0.010  1.00  0.00    -0.489 OA
BRANCH  29  30
ATOM     30  C   UNL     1       5.518   0.034   1.036  1.00  0.00    +0.173 C 
ATOM     31  C   UNL     1       6.656   0.831   1.644  1.00  0.00    +0.049 C 
ATOM     32  C   UNL     1       5.358   0.657   2.407  1.00  0.00    +0.049 C 
ENDBRANCH  29  30
ENDBRANCH  22  29
ENDBRANCH  15  19
ENDBRANCH   1  13
BRANCH  11  33
ATOM     33  C   UNL     1      -5.572   0.152  -1.020  1.00  0.00    +0.137 C 
BRANCH  33  34
ATOM     34  N   UNL     1      -6.887   0.651  -1.425  1.00  0.00    -0.325 NA
ATOM     35  H   UNL     1      -7.245   0.029  -2.189  1.00  0.00    +0.119 HD
ATOM     36  H   UNL     1      -7.547   0.523  -0.621  1.00  0.00    +0.119 HD
ENDBRANCH  33  34
ENDBRANCH  11  33
TORSDOF 6
