REMARK SMILES CC(=O)c1c(C)c2cnc(Nc3ccc(N4CCNCC4)cn3)nc2n(C2CCCC2)c1=O
REMARK SMILES IDX 11 1 10 3 5 4 4 5 7 6 32 7 8 8 25 9 33 10 26 11 9 12 24 13
REMARK SMILES IDX 6 14 2 15 3 16 1 17 27 18 28 19 31 20 29 21 30 22 12 23
REMARK SMILES IDX 23 24 13 25 22 26 14 27 15 28 16 29 17 30 21 31 18 32 20 33
REMARK SMILES IDX 19 34
REMARK H PARENT 11 2 19 35
ROOT
ATOM      1  N   UNL     1       0.670  -1.016   0.211  1.00  0.00    -0.309 N 
ATOM      2  H   UNL     1       0.387  -1.934   0.630  1.00  0.00    +0.171 HD
ENDROOT
BRANCH   1   3
ATOM      3  C   UNL     1      -0.387  -0.084  -0.072  1.00  0.00    +0.230 A 
ATOM      4  C   UNL     1      -3.577   2.500  -0.844  1.00  0.00    -0.022 A 
ATOM      5  C   UNL     1      -4.891   2.047  -0.604  1.00  0.00    +0.086 A 
ATOM      6  C   UNL     1      -2.496   1.647  -0.544  1.00  0.00    +0.040 A 
ATOM      7  C   UNL     1      -5.095   0.697  -0.231  1.00  0.00    +0.263 A 
ATOM      8  C   UNL     1      -1.152   2.077  -0.609  1.00  0.00    +0.127 A 
ATOM      9  C   UNL     1      -2.745   0.310  -0.159  1.00  0.00    +0.148 A 
ATOM     10  O   UNL     1      -6.283   0.279  -0.116  1.00  0.00    -0.268 OA
ATOM     11  N   UNL     1      -4.039  -0.165   0.004  1.00  0.00    -0.289 N 
ATOM     12  N   UNL     1      -0.135   1.216  -0.361  1.00  0.00    -0.221 NA
ATOM     13  N   UNL     1      -1.671  -0.499   0.033  1.00  0.00    -0.194 NA
ATOM     14  C   UNL     1      -3.335   3.861  -1.473  1.00  0.00    +0.046 C 
BRANCH   5  15
ATOM     15  C   UNL     1      -6.044   2.996  -0.669  1.00  0.00    +0.165 C 
ATOM     16  O   UNL     1      -5.901   4.165  -0.207  1.00  0.00    -0.294 OA
ATOM     17  C   UNL     1      -7.383   2.609  -1.228  1.00  0.00    +0.094 C 
ENDBRANCH   5  15
BRANCH  11  18
ATOM     18  C   UNL     1      -4.387  -1.592   0.351  1.00  0.00    +0.092 C 
ATOM     19  C   UNL     1      -5.250  -1.715   1.620  1.00  0.00    +0.025 C 
ATOM     20  C   UNL     1      -3.251  -2.586   0.630  1.00  0.00    +0.025 C 
ATOM     21  C   UNL     1      -4.996  -3.114   2.190  1.00  0.00    +0.002 C 
ATOM     22  C   UNL     1      -3.930  -3.754   1.314  1.00  0.00    +0.002 C 
ENDBRANCH  11  18
ENDBRANCH   1   3
BRANCH   1  23
ATOM     23  C   UNL     1       2.079  -0.778   0.068  1.00  0.00    +0.132 A 
ATOM     24  N   UNL     1       2.941  -1.492   0.844  1.00  0.00    -0.237 NA
ATOM     25  C   UNL     1       2.594   0.107  -0.891  1.00  0.00    +0.049 A 
ATOM     26  C   UNL     1       4.288  -1.357   0.746  1.00  0.00    +0.139 A 
ATOM     27  C   UNL     1       3.980   0.284  -0.993  1.00  0.00    +0.031 A 
ATOM     28  C   UNL     1       4.845  -0.458  -0.174  1.00  0.00    +0.055 A 
BRANCH  28  29
ATOM     29  N   UNL     1       6.274  -0.315  -0.292  1.00  0.00    -0.368 N 
ATOM     30  C   UNL     1       6.881   1.010  -0.478  1.00  0.00    +0.132 C 
ATOM     31  C   UNL     1       7.146  -1.493  -0.221  1.00  0.00    +0.132 C 
ATOM     32  C   UNL     1       8.297   1.024   0.119  1.00  0.00    +0.102 C 
ATOM     33  C   UNL     1       8.461  -1.213  -0.957  1.00  0.00    +0.102 C 
ATOM     34  N   UNL     1       9.169  -0.034  -0.425  1.00  0.00    -0.313 NA
ATOM     35  H   UNL     1       9.749   0.371  -1.195  1.00  0.00    +0.122 HD
ENDBRANCH  28  29
ENDBRANCH   1  23
TORSDOF 5
