REMARK SMILES Nc1nc2[nH]cc(CCc3ccc(C(=O)N[C@@H](CCC(=O)O)C(=O)O)cc3)c2c(=O)[nH]1
REMARK SMILES IDX 14 1 15 2 16 3 13 5 11 6 12 7 10 8 27 9 26 10 9 11 8 12 7 13
REMARK SMILES IDX 6 14 28 15 5 16 4 17 29 18 3 19 30 20 31 21 2 22 1 25 17 28
REMARK SMILES IDX 18 29 19 30 20 31 21 32 22 33 23 35 24 36 25 37
REMARK H PARENT 16 4 5 23 31 24 1 26 1 27 22 34 25 38
ROOT
ATOM      1  C   UNL     1       2.352  -0.072  -1.412  1.00  0.00    +0.251 C 
ATOM      2  O   UNL     1       2.386   0.461  -2.553  1.00  0.00    -0.269 OA
ATOM      3  N   UNL     1       3.366  -1.020  -1.035  1.00  0.00    -0.339 N 
ATOM      4  H   UNL     1       3.253  -1.540  -0.130  1.00  0.00    +0.164 HD
ENDROOT
BRANCH   1   5
ATOM      5  C   UNL     1       1.254   0.287  -0.483  1.00  0.00    +0.039 A 
ATOM      6  C   UNL     1      -1.007   1.113  -0.139  1.00  0.00    +0.004 A 
ATOM      7  C   UNL     1       0.016   0.706  -0.996  1.00  0.00    +0.014 A 
ATOM      8  C   UNL     1      -0.811   1.114   1.248  1.00  0.00    -0.048 A 
ATOM      9  C   UNL     1       0.410   0.668   1.768  1.00  0.00    +0.004 A 
ATOM     10  C   UNL     1       1.435   0.263   0.909  1.00  0.00    +0.014 A 
BRANCH   8  11
ATOM     11  C   UNL     1      -1.917   1.570   2.163  1.00  0.00    +0.040 C 
BRANCH  11  12
ATOM     12  C   UNL     1      -2.793   0.401   2.640  1.00  0.00    +0.043 C 
BRANCH  12  13
ATOM     13  C   UNL     1      -3.491  -0.290   1.506  1.00  0.00    -0.015 A 
ATOM     14  C   UNL     1      -3.116  -1.502   0.930  1.00  0.00    +0.089 A 
ATOM     15  C   UNL     1      -4.569   0.152   0.763  1.00  0.00    +0.087 A 
ATOM     16  N   UNL     1      -3.912  -1.802  -0.120  1.00  0.00    -0.346 N 
ATOM     17  C   UNL     1      -4.793  -0.792  -0.192  1.00  0.00    +0.147 A 
ATOM     18  C   UNL     1      -5.378   1.283   0.818  1.00  0.00    +0.262 A 
ATOM     19  N   UNL     1      -5.766  -0.655  -1.121  1.00  0.00    -0.197 NA
ATOM     20  O   UNL     1      -5.214   2.163   1.704  1.00  0.00    -0.269 OA
ATOM     21  N   UNL     1      -6.370   1.414  -0.113  1.00  0.00    -0.292 N 
ATOM     22  C   UNL     1      -6.567   0.454  -1.075  1.00  0.00    +0.202 A 
ATOM     23  H   UNL     1      -3.860  -2.642  -0.740  1.00  0.00    +0.167 HD
ATOM     24  H   UNL     1      -6.985   2.260  -0.097  1.00  0.00    +0.173 HD
BRANCH  22  25
ATOM     25  N   UNL     1      -7.601   0.613  -2.046  1.00  0.00    -0.369 N 
ATOM     26  H   UNL     1      -7.718  -0.104  -2.796  1.00  0.00    +0.159 HD
ATOM     27  H   UNL     1      -8.250   1.436  -2.010  1.00  0.00    +0.159 HD
ENDBRANCH  22  25
ENDBRANCH  12  13
ENDBRANCH  11  12
ENDBRANCH   8  11
ENDBRANCH   1   5
BRANCH   3  28
ATOM     28  C   UNL     1       4.526  -1.297  -1.894  1.00  0.00    +0.192 C 
BRANCH  28  29
ATOM     29  C   UNL     1       5.571  -0.163  -1.795  1.00  0.00    +0.049 C 
BRANCH  29  30
ATOM     30  C   UNL     1       6.243  -0.014  -0.412  1.00  0.00    +0.125 C 
BRANCH  30  31
ATOM     31  C   UNL     1       5.329   0.527   0.640  1.00  0.00    +0.303 C 
ATOM     32  O   UNL     1       4.672   1.585   0.440  1.00  0.00    -0.252 OA
BRANCH  31  33
ATOM     33  O   UNL     1       5.268  -0.110   1.875  1.00  0.00    -0.481 OA
ATOM     34  H   UNL     1       4.680   0.243   2.617  1.00  0.00    +0.296 HD
ENDBRANCH  31  33
ENDBRANCH  30  31
ENDBRANCH  29  30
ENDBRANCH  28  29
BRANCH  28  35
ATOM     35  C   UNL     1       5.144  -2.645  -1.603  1.00  0.00    +0.326 C 
ATOM     36  O   UNL     1       6.000  -3.115  -2.401  1.00  0.00    -0.250 OA
BRANCH  35  37
ATOM     37  O   UNL     1       4.793  -3.373  -0.466  1.00  0.00    -0.480 OA
ATOM     38  H   UNL     1       5.206  -4.280  -0.289  1.00  0.00    +0.296 HD
ENDBRANCH  35  37
ENDBRANCH  28  35
ENDBRANCH   3  28
TORSDOF 12
