REMARK SMILES CCn1c(-c2cc(N3CCN(C4CC4)CC3)cnc2[C@H](C)OC)c2c3cc(ccc31)-c1csc(n1)C[C@H](NC(=O)C1[C@H]3COC[C@@H]13)C(=O)N1CCC[C@H](N1)C(=O)OCC(C)(C)C2
REMARK SMILES IDX 3 1 30 2 25 3 26 4 27 5 28 6 29 7 24 8 4 9 2 10 1 11 5 12
REMARK SMILES IDX 19 13 6 14 18 15 7 16 17 17 20 18 21 19 22 20 23 21 8 22
REMARK SMILES IDX 9 23 16 24 10 25 15 26 11 27 12 28 13 29 14 30 62 31 59 32
REMARK SMILES IDX 60 33 61 34 58 35 57 36 55 37 56 38 31 40 32 41 35 42 33 43
REMARK SMILES IDX 34 44 36 45 37 46 47 47 48 48 49 49 50 50 54 51 51 52 53 53
REMARK SMILES IDX 52 54 38 57 39 58 40 59 41 61 46 62 42 63 45 64 43 65 44 66
REMARK H PARENT 54 55 38 60
REMARK Flexibility Score:  169.900
ROOT
ATOM      1  N   UNL     1      -2.323   1.856  -1.042  1.00  0.00    -0.340 N 
ATOM      2  C   UNL     1      -0.978   2.007  -1.019  1.00  0.00    +0.049 A 
ATOM      3  C   UNL     1      -0.358   0.797  -0.866  1.00  0.00    +0.004 A 
ATOM      4  C   UNL     1       1.024   0.689  -0.736  1.00  0.00    +0.021 A 
ATOM      5  C   UNL     1       1.796   1.867  -0.701  1.00  0.00    +0.002 A 
ATOM      6  C   UNL     1       1.156   3.119  -0.902  1.00  0.00    +0.012 A 
ATOM      7  C   UNL     1      -0.241   3.195  -1.066  1.00  0.00    +0.027 A 
ATOM      8  C   UNL     1      -1.340  -0.167  -0.780  1.00  0.00    -0.014 A 
ATOM      9  C   UNL     1      -2.551   0.515  -0.928  1.00  0.00    +0.054 A 
ENDROOT
BRANCH   1  10
ATOM     10  C   UNL     1      -3.314   2.938  -1.124  1.00  0.00    +0.119 C 
ATOM     11  C   UNL     1      -3.584   3.323  -2.571  1.00  0.00    +0.027 C 
ENDBRANCH   1  10
BRANCH   9  12
ATOM     12  C   UNL     1      -3.888  -0.122  -0.951  1.00  0.00    +0.025 A 
ATOM     13  C   UNL     1      -4.294  -1.001  -1.981  1.00  0.00    +0.078 A 
ATOM     14  C   UNL     1      -4.788   0.160   0.088  1.00  0.00    +0.039 A 
ATOM     15  N   UNL     1      -5.542  -1.538  -1.932  1.00  0.00    -0.256 NA
ATOM     16  C   UNL     1      -6.097  -0.377   0.097  1.00  0.00    +0.056 A 
ATOM     17  C   UNL     1      -6.428  -1.268  -0.945  1.00  0.00    +0.137 A 
BRANCH  13  18
ATOM     18  C   UNL     1      -3.444  -1.327  -3.194  1.00  0.00    +0.164 C 
ATOM     19  C   UNL     1      -3.906  -0.487  -4.386  1.00  0.00    +0.045 C 
BRANCH  18  20
ATOM     20  O   UNL     1      -3.611  -2.704  -3.504  1.00  0.00    -0.375 OA
ATOM     21  C   UNL     1      -2.396  -3.276  -3.940  1.00  0.00    +0.195 C 
ENDBRANCH  18  20
ENDBRANCH  13  18
BRANCH  16  22
ATOM     22  N   UNL     1      -7.076   0.010   1.109  1.00  0.00    -0.368 N 
ATOM     23  C   UNL     1      -8.456  -0.517   0.997  1.00  0.00    +0.132 C 
ATOM     24  C   UNL     1      -6.709   1.049   2.097  1.00  0.00    +0.132 C 
ATOM     25  C   UNL     1      -9.434  -0.017   2.070  1.00  0.00    +0.106 C 
ATOM     26  C   UNL     1      -7.827   1.437   3.077  1.00  0.00    +0.106 C 
ATOM     27  N   UNL     1      -9.166   1.366   2.480  1.00  0.00    -0.297 NA
BRANCH  27  28
ATOM     28  C   UNL     1      -9.319   2.314   1.360  1.00  0.00    +0.057 C 
ATOM     29  C   UNL     1      -9.706   3.719   1.798  1.00  0.00    +0.021 C 
ATOM     30  C   UNL     1     -10.746   2.806   1.172  1.00  0.00    +0.021 C 
ENDBRANCH  27  28
ENDBRANCH  16  22
ENDBRANCH   9  12
BRANCH   8  31
ATOM     31  C   UNL     1      -1.117  -1.624  -0.454  1.00  0.00    +0.048 C 
BRANCH  31  32
ATOM     32  C   UNL     1      -0.950  -1.958   1.076  1.00  0.00    +0.003 C 
ATOM     33  C   UNL     1      -2.295  -2.481   1.629  1.00  0.00    +0.015 C 
ATOM     34  C   UNL     1      -0.525  -0.748   1.946  1.00  0.00    +0.015 C 
BRANCH  32  35
ATOM     35  C   UNL     1       0.119  -3.070   1.239  1.00  0.00    +0.239 C 
BRANCH  35  36
ATOM     36  O   UNL     1       1.360  -2.636   0.683  1.00  0.00    -0.464 OA
BRANCH  36  37
ATOM     37  C   UNL     1       2.484  -3.454   0.558  1.00  0.00    +0.324 CG0
ATOM     38  O   UNL     1       2.545  -4.562   1.160  1.00  0.00    -0.250 OA
ATOM     39  G   UNL     1       3.576  -3.039  -0.385  1.00  0.00    +0.000 G0
ENDBRANCH  36  37
ENDBRANCH  35  36
ENDBRANCH  32  35
ENDBRANCH  31  32
ENDBRANCH   8  31
BRANCH   5  40
ATOM     40  C   UNL     1       3.221   1.770  -0.308  1.00  0.00    +0.081 A 
ATOM     41  C   UNL     1       4.164   2.787  -0.456  1.00  0.00    +0.095 A 
ATOM     42  N   UNL     1       3.681   0.671   0.350  1.00  0.00    -0.241 NA
ATOM     43  S   UNL     1       5.593   2.277   0.277  1.00  0.00    -0.127 S 
ATOM     44  C   UNL     1       4.967   0.786   0.731  1.00  0.00    +0.096 A 
BRANCH  44  45
ATOM     45  C   UNL     1       5.646  -0.246   1.583  1.00  0.00    +0.102 C 
BRANCH  45  46
ATOM     46  C   UNL     1       6.836  -0.948   0.902  1.00  0.00    +0.179 C 
BRANCH  46  47
ATOM     47  C   UNL     1       6.511  -1.437  -0.493  1.00  0.00    +0.259 C 
ATOM     48  O   UNL     1       6.777  -0.712  -1.489  1.00  0.00    -0.271 OA
BRANCH  47  49
ATOM     49  N   UNL     1       5.863  -2.707  -0.687  1.00  0.00    -0.275 N 
ATOM     50  C   UNL     1       5.972  -3.423  -1.965  1.00  0.00    +0.140 C 
ATOM     51  N   UNL     1       4.901  -3.147   0.247  1.00  0.00    -0.218 NA
ATOM     52  C   UNL     1       4.609  -3.426  -2.657  1.00  0.00    +0.025 C 
ATOM     53  C   UNL     1       3.576  -3.039  -0.385  1.00  0.00    +0.184 CG0
ATOM     54  C   UNL     1       3.514  -3.874  -1.681  1.00  0.00    +0.035 C 
ATOM     55  H   UNL     1       5.104  -4.153   0.465  1.00  0.00    +0.149 HD
ATOM     56  G   UNL     1       2.484  -3.454   0.558  1.00  0.00    +0.000 G0
ENDBRANCH  47  49
ENDBRANCH  46  47
BRANCH  46  57
ATOM     57  N   UNL     1       8.010  -0.065   0.905  1.00  0.00    -0.344 N 
ATOM     58  C   UNL     1       8.871   0.036   2.058  1.00  0.00    +0.224 C 
ATOM     59  O   UNL     1       8.724  -0.768   3.017  1.00  0.00    -0.275 OA
ATOM     60  H   UNL     1       8.111   0.619   0.126  1.00  0.00    +0.164 HD
BRANCH  58  61
ATOM     61  C   UNL     1       9.945   1.089   2.195  1.00  0.00    +0.090 C 
ATOM     62  C   UNL     1      10.548   1.670   0.924  1.00  0.00    +0.034 C 
ATOM     63  C   UNL     1       9.552   2.474   1.705  1.00  0.00    +0.034 C 
ATOM     64  C   UNL     1      11.862   2.403   1.094  1.00  0.00    +0.165 C 
ATOM     65  C   UNL     1      10.343   3.630   2.281  1.00  0.00    +0.165 C 
ATOM     66  O   UNL     1      11.671   3.601   1.812  1.00  0.00    -0.381 OA
ENDBRANCH  58  61
ENDBRANCH  46  57
ENDBRANCH  45  46
ENDBRANCH  44  45
ENDBRANCH   5  40
TORSDOF 8
