REMARK SMILES Cn1cnc2c(F)c(Nc3ccc(Br)cc3Cl)c(C(=O)NOCCO)cc21
REMARK SMILES IDX 19 1 20 2 21 3 18 5 2 6 3 7 27 8 4 9 5 10 26 11 6 12 8 13
REMARK SMILES IDX 1 14 7 15 9 16 10 18 16 19 11 20 15 21 12 22 13 23 17 24
REMARK SMILES IDX 14 25 22 26 23 27 24 28 25 29
REMARK H PARENT 21 4 9 17 25 30
ROOT
ATOM      1  C   UNL     1      -1.125  -0.650   0.583  1.00  0.00    +0.277 C 
ATOM      2  O   UNL     1      -0.766  -1.518   1.418  1.00  0.00    -0.267 OA
ATOM      3  N   UNL     1      -2.338  -0.865  -0.158  1.00  0.00    -0.231 N 
ATOM      4  H   UNL     1      -2.629  -0.207  -0.918  1.00  0.00    +0.199 HD
ENDROOT
BRANCH   1   5
ATOM      5  C   UNL     1      -0.282   0.561   0.359  1.00  0.00    +0.070 A 
ATOM      6  N   UNL     1      -0.353   4.019  -0.970  1.00  0.00    -0.334 N 
ATOM      7  C   UNL     1       0.814   4.706  -0.974  1.00  0.00    +0.200 A 
ATOM      8  C   UNL     1      -0.038   2.827  -0.445  1.00  0.00    +0.072 A 
ATOM      9  N   UNL     1       1.863   3.989  -0.492  1.00  0.00    -0.234 NA
ATOM     10  C   UNL     1       1.293   2.814  -0.157  1.00  0.00    +0.126 A 
ATOM     11  C   UNL     1      -0.861   1.730  -0.204  1.00  0.00    +0.045 A 
ATOM     12  C   UNL     1       1.908   1.706   0.405  1.00  0.00    +0.175 A 
ATOM     13  C   UNL     1       1.119   0.564   0.672  1.00  0.00    +0.090 A 
ATOM     14  C   UNL     1      -1.649   4.472  -1.467  1.00  0.00    +0.151 C 
ATOM     15  F   UNL     1       3.234   1.731   0.705  1.00  0.00    -0.202 F 
BRANCH  13  16
ATOM     16  N   UNL     1       1.747  -0.569   1.287  1.00  0.00    -0.351 N 
ATOM     17  H   UNL     1       1.545  -0.734   2.302  1.00  0.00    +0.167 HD
BRANCH  16  18
ATOM     18  C   UNL     1       2.813  -1.295   0.649  1.00  0.00    +0.057 A 
ATOM     19  C   UNL     1       3.870  -1.847   1.408  1.00  0.00    +0.065 A 
ATOM     20  C   UNL     1       2.803  -1.473  -0.743  1.00  0.00    +0.029 A 
ATOM     21  C   UNL     1       4.897  -2.551   0.769  1.00  0.00    +0.038 A 
ATOM     22  C   UNL     1       3.830  -2.177  -1.376  1.00  0.00    +0.018 A 
ATOM     23  C   UNL     1       4.879  -2.713  -0.619  1.00  0.00    +0.019 A 
ATOM     24 Cl   UNL     1       3.967  -1.626   3.150  1.00  0.00    -0.082 Cl
ATOM     25 Br   UNL     1       6.292  -3.659  -1.482  1.00  0.00    -0.051 Br
ENDBRANCH  16  18
ENDBRANCH  13  16
ENDBRANCH   1   5
BRANCH   3  26
ATOM     26  O   UNL     1      -3.048  -2.016  -0.001  1.00  0.00    -0.271 OA
BRANCH  26  27
ATOM     27  C   UNL     1      -4.042  -1.749   0.964  1.00  0.00    +0.222 C 
BRANCH  27  28
ATOM     28  C   UNL     1      -5.010  -2.929   1.039  1.00  0.00    +0.187 C 
BRANCH  28  29
ATOM     29  O   UNL     1      -5.766  -3.012  -0.141  1.00  0.00    -0.394 OA
ATOM     30  H   UNL     1      -5.167  -3.396  -0.833  1.00  0.00    +0.210 HD
ENDBRANCH  28  29
ENDBRANCH  27  28
ENDBRANCH  26  27
ENDBRANCH   3  26
TORSDOF 7
