REMARK SMILES C=CC(=O)N1CCN(c2nc(=O)n(-c3c(C)ccnc3C(C)C)c3nc(-c4c(O)cccc4F)c(F)cc23)[C@@H](C)C1
REMARK SMILES IDX 9 1 10 2 11 3 12 4 13 5 24 6 25 7 26 8 35 9 37 10 38 11
REMARK SMILES IDX 36 12 8 13 39 14 41 15 5 16 7 17 6 18 40 19 3 20 4 21 2 22
REMARK SMILES IDX 1 23 14 24 15 25 20 26 17 27 19 28 18 29 16 30 21 31 22 32
REMARK SMILES IDX 23 33 27 34 28 35 33 36 30 37 32 38 31 39 34 40 29 41
REMARK H PARENT 29 42
ROOT
ATOM      1  C   UNL     1       1.408  -0.396   0.094  1.00  0.00    +0.145 A 
ATOM      2  N   UNL     1       1.225  -1.607   0.678  1.00  0.00    -0.175 NA
ATOM      3  C   UNL     1       0.019  -1.990   1.170  1.00  0.00    +0.355 A 
ATOM      4  O   UNL     1      -0.093  -3.127   1.704  1.00  0.00    -0.245 OA
ATOM      5  N   UNL     1      -1.059  -1.151   1.085  1.00  0.00    -0.242 N 
ATOM      6  C   UNL     1      -0.924   0.082   0.506  1.00  0.00    +0.153 A 
ATOM      7  N   UNL     1      -1.992   0.925   0.427  1.00  0.00    -0.226 NA
ATOM      8  C   UNL     1      -1.910   2.150  -0.151  1.00  0.00    +0.115 A 
ATOM      9  C   UNL     1      -0.697   2.581  -0.702  1.00  0.00    +0.150 A 
ATOM     10  C   UNL     1       0.420   1.747  -0.632  1.00  0.00    +0.057 A 
ATOM     11  C   UNL     1       0.322   0.488  -0.014  1.00  0.00    +0.064 A 
ATOM     12  F   UNL     1      -0.597   3.798  -1.294  1.00  0.00    -0.205 F 
ENDROOT
BRANCH   1  13
ATOM     13  N   UNL     1       2.716  -0.043  -0.378  1.00  0.00    -0.350 N 
ATOM     14  C   UNL     1       3.286  -0.728  -1.546  1.00  0.00    +0.100 C 
ATOM     15  C   UNL     1       4.684  -1.278  -1.207  1.00  0.00    +0.144 C 
ATOM     16  N   UNL     1       5.477  -0.283  -0.471  1.00  0.00    -0.335 N 
ATOM     17  C   UNL     1       3.517   0.945   0.350  1.00  0.00    +0.140 C 
ATOM     18  C   UNL     1       4.870   0.339   0.713  1.00  0.00    +0.141 C 
ATOM     19  C   UNL     1       3.333   0.224  -2.746  1.00  0.00    +0.033 C 
BRANCH  16  20
ATOM     20  C   UNL     1       6.887  -0.109  -0.724  1.00  0.00    +0.246 C 
ATOM     21  O   UNL     1       7.436   0.995  -0.442  1.00  0.00    -0.270 OA
BRANCH  20  22
ATOM     22  C   UNL     1       7.710  -1.211  -1.271  1.00  0.00    +0.063 C 
ATOM     23  C   UNL     1       8.974  -1.033  -1.654  1.00  0.00    +0.014 C 
ENDBRANCH  20  22
ENDBRANCH  16  20
ENDBRANCH   1  13
BRANCH   5  24
ATOM     24  C   UNL     1      -2.345  -1.567   1.592  1.00  0.00    +0.077 A 
ATOM     25  C   UNL     1      -2.762  -1.164   2.879  1.00  0.00    -0.023 A 
ATOM     26  C   UNL     1      -3.227  -2.327   0.788  1.00  0.00    +0.067 A 
ATOM     27  C   UNL     1      -4.046  -1.506   3.323  1.00  0.00    +0.025 A 
ATOM     28  N   UNL     1      -4.466  -2.632   1.265  1.00  0.00    -0.259 NA
ATOM     29  C   UNL     1      -4.886  -2.250   2.497  1.00  0.00    +0.112 A 
ATOM     30  C   UNL     1      -1.880  -0.311   3.749  1.00  0.00    +0.047 C 
BRANCH  26  31
ATOM     31  C   UNL     1      -2.869  -2.739  -0.627  1.00  0.00    +0.034 C 
ATOM     32  C   UNL     1      -3.543  -1.803  -1.635  1.00  0.00    +0.014 C 
ATOM     33  C   UNL     1      -3.261  -4.198  -0.892  1.00  0.00    +0.014 C 
ENDBRANCH  26  31
ENDBRANCH   5  24
BRANCH   8  34
ATOM     34  C   UNL     1      -3.100   3.010  -0.174  1.00  0.00    +0.081 A 
ATOM     35  C   UNL     1      -3.427   3.822   0.935  1.00  0.00    +0.128 A 
ATOM     36  C   UNL     1      -3.942   2.997  -1.297  1.00  0.00    +0.136 A 
ATOM     37  C   UNL     1      -4.583   4.611   0.897  1.00  0.00    +0.047 A 
ATOM     38  C   UNL     1      -5.094   3.788  -1.320  1.00  0.00    +0.040 A 
ATOM     39  C   UNL     1      -5.414   4.594  -0.225  1.00  0.00    +0.007 A 
ATOM     40  F   UNL     1      -3.654   2.211  -2.365  1.00  0.00    -0.206 F 
BRANCH  35  41
ATOM     41  O   UNL     1      -2.629   3.863   2.079  1.00  0.00    -0.507 OA
ATOM     42  H   UNL     1      -1.778   3.321   2.173  1.00  0.00    +0.293 HD
ENDBRANCH  35  41
ENDBRANCH   8  34
TORSDOF 7
