REMARK SMILES CC[C@@]1(O)C(=O)OCc2c1cc1n(c2=O)Cc2cc3c(CN(C)C)c(O)ccc3nc2-1
REMARK SMILES IDX 3 1 10 2 9 3 8 4 7 5 5 6 6 7 14 8 15 9 13 10 16 11 17 12
REMARK SMILES IDX 18 13 19 14 29 15 28 16 27 17 25 18 20 19 30 20 31 21 12 22
REMARK SMILES IDX 11 23 2 24 1 25 4 26 21 28 22 29 23 30 24 31 26 32
REMARK H PARENT 4 27 26 33
ROOT
ATOM      1  C   UNL     1       5.362  -0.176  -0.349  1.00  0.00    +0.187 C 
ATOM      2  C   UNL     1       3.966  -0.738  -0.040  1.00  0.00    +0.009 A 
ATOM      3  C   UNL     1       3.814  -2.103   0.331  1.00  0.00    +0.062 A 
ATOM      4  C   UNL     1       5.024  -2.994   0.394  1.00  0.00    +0.275 C 
ATOM      5  O   UNL     1       6.162  -2.270   0.837  1.00  0.00    -0.458 OA
ATOM      6  C   UNL     1       6.429  -0.983   0.381  1.00  0.00    +0.343 C 
ATOM      7  O   UNL     1       7.592  -0.516   0.529  1.00  0.00    -0.248 OA
ATOM      8  C   UNL     1       2.519  -2.649   0.481  1.00  0.00    +0.258 A 
ATOM      9  O   UNL     1       2.357  -3.872   0.759  1.00  0.00    -0.269 OA
ATOM     10  N   UNL     1       1.440  -1.846   0.301  1.00  0.00    -0.302 N 
ATOM     11  C   UNL     1       0.028  -2.244   0.345  1.00  0.00    +0.164 C 
ATOM     12  C   UNL     1      -0.669  -0.984  -0.067  1.00  0.00    +0.000 A 
ATOM     13  C   UNL     1      -2.019  -0.774  -0.321  1.00  0.00    +0.018 A 
ATOM     14  C   UNL     1      -2.437   0.508  -0.789  1.00  0.00    +0.009 A 
ATOM     15  C   UNL     1      -1.422   1.504  -0.990  1.00  0.00    +0.072 A 
ATOM     16  C   UNL     1      -1.759   2.764  -1.482  1.00  0.00    +0.033 A 
ATOM     17  C   UNL     1      -3.072   3.054  -1.815  1.00  0.00    +0.049 A 
ATOM     18  C   UNL     1      -4.084   2.108  -1.644  1.00  0.00    +0.120 A 
ATOM     19  C   UNL     1      -3.797   0.835  -1.078  1.00  0.00    +0.017 A 
ATOM     20  N   UNL     1      -0.107   1.230  -0.736  1.00  0.00    -0.246 NA
ATOM     21  C   UNL     1       0.247   0.005  -0.284  1.00  0.00    +0.092 A 
ATOM     22  C   UNL     1       1.560  -0.547  -0.048  1.00  0.00    +0.071 A 
ATOM     23  C   UNL     1       2.803   0.043  -0.251  1.00  0.00    +0.036 A 
ENDROOT
BRANCH   1  24
ATOM     24  C   UNL     1       5.510   1.342   0.035  1.00  0.00    +0.049 C 
ATOM     25  C   UNL     1       5.263   1.633   1.516  1.00  0.00    +0.008 C 
ENDBRANCH   1  24
BRANCH   1  26
ATOM     26  O   UNL     1       5.602  -0.330  -1.730  1.00  0.00    -0.374 OA
ATOM     27  H   UNL     1       4.978   0.268  -2.229  1.00  0.00    +0.212 HD
ENDBRANCH   1  26
BRANCH  19  28
ATOM     28  C   UNL     1      -4.963  -0.109  -0.774  1.00  0.00    +0.124 C 
BRANCH  28  29
ATOM     29  N   UNL     1      -5.975   0.558   0.078  1.00  0.00    -0.305 NA
ATOM     30  C   UNL     1      -5.465   0.745   1.449  1.00  0.00    +0.105 C 
ATOM     31  C   UNL     1      -7.203  -0.250   0.123  1.00  0.00    +0.105 C 
ENDBRANCH  28  29
ENDBRANCH  19  28
BRANCH  18  32
ATOM     32  O   UNL     1      -5.372   2.463  -2.065  1.00  0.00    -0.508 OA
ATOM     33  H   UNL     1      -6.129   1.788  -2.155  1.00  0.00    +0.293 HD
ENDBRANCH  18  32
TORSDOF 5
