REMARK SMILES COc1cc2c(cc1O)CCN[C@]21CS[C@@H]2c3c(OC(C)=O)c(C)c4c(c3[C@H](COC1=O)N1[C@@H]2[C@H]2c3c(cc(C)c(OC)c3O)C[C@@H]([C@@H]1O)N2C)OCO4
REMARK SMILES IDX 15 1 16 2 39 3 38 4 41 5 37 6 44 7 36 8 46 9 35 10 47 11
REMARK SMILES IDX 34 12 50 13 48 14 33 15 17 16 28 17 18 18 27 19 23 20 26 21
REMARK SMILES IDX 25 22 52 23 54 24 53 25 40 26 51 27 24 28 42 29 43 30 45 31
REMARK SMILES IDX 49 33 29 35 30 36 31 37 32 38 19 40 20 41 22 42 21 43 14 44
REMARK SMILES IDX 13 45 5 46 12 47 4 48 6 49 11 50 3 51 7 52 10 53 8 54 2 57
REMARK SMILES IDX 1 58 9 59
REMARK H PARENT 45 32 49 34 12 55 9 60
REMARK Flexibility Score:   54.900
ROOT
ATOM      1  S   UNL     1       0.524   0.747  -0.776  1.00  0.00    -0.149 SA
ENDROOT
BRANCH   1   2
ATOM      2  C   UNL     1       1.236  -0.952  -0.765  1.00  0.00    +0.100 C 
ATOM      3  C   UNL     1       3.652   4.045  -0.096  1.00  0.00    -0.005 A 
ATOM      4  C   UNL     1       4.166   3.225   0.913  1.00  0.00    +0.011 A 
ATOM      5  C   UNL     1       3.172   3.457  -1.290  1.00  0.00    +0.163 A 
ATOM      6  C   UNL     1       4.225   1.834   0.758  1.00  0.00    -0.037 A 
ATOM      7  C   UNL     1       3.256   2.058  -1.466  1.00  0.00    +0.163 A 
ATOM      8  C   UNL     1       3.743   1.233  -0.430  1.00  0.00    +0.020 A 
ATOM      9  C   UNL     1       4.990   1.052   1.799  1.00  0.00    +0.059 C 
ATOM     10  C   UNL     1       3.803  -0.291  -0.576  1.00  0.00    +0.110 C 
ATOM     11  C   UNL     1       4.900  -0.475   1.596  1.00  0.00    +0.105 C 
ATOM     12  C   UNL     1       2.566  -1.024   0.025  1.00  0.00    +0.099 C 
ATOM     13  N   UNL     1       5.016  -0.737   0.143  1.00  0.00    -0.290 NA
ATOM     14  C   UNL     1       3.589  -1.037   2.229  1.00  0.00    +0.203 C 
ATOM     15  N   UNL     1       2.397  -0.638   1.452  1.00  0.00    -0.260 NA
ATOM     16  C   UNL     1       0.324  -1.970  -0.116  1.00  0.00    +0.019 A 
ATOM     17  C   UNL     1       1.117  -1.049   2.123  1.00  0.00    +0.132 C 
ATOM     18  C   UNL     1      -0.486  -2.863  -0.881  1.00  0.00    +0.142 A 
ATOM     19  C   UNL     1       0.300  -2.024   1.297  1.00  0.00    +0.027 A 
ATOM     20  C   UNL     1      -1.252  -3.864  -0.220  1.00  0.00    +0.038 A 
ATOM     21  C   UNL     1      -0.539  -2.963   1.892  1.00  0.00    +0.171 A 
ATOM     22  C   UNL     1      -1.274  -3.845   1.173  1.00  0.00    +0.172 A 
ATOM     23  O   UNL     1      -0.756  -3.175   3.242  1.00  0.00    -0.453 OA
ATOM     24  O   UNL     1      -1.980  -4.666   2.032  1.00  0.00    -0.453 OA
ATOM     25  C   UNL     1      -1.681  -4.270   3.374  1.00  0.00    +0.468 C 
ATOM     26  C   UNL     1       3.669   5.534   0.110  1.00  0.00    +0.048 C 
ATOM     27  C   UNL     1       5.483  -2.096  -0.201  1.00  0.00    +0.106 C 
ATOM     28  C   UNL     1      -2.032  -4.908  -0.968  1.00  0.00    +0.053 C 
BRANCH   5  29
ATOM     29  O   UNL     1       2.652   4.242  -2.328  1.00  0.00    -0.493 OA
ATOM     30  C   UNL     1       1.416   4.951  -2.212  1.00  0.00    +0.278 C 
ENDBRANCH   5  29
BRANCH   7  31
ATOM     31  O   UNL     1       2.852   1.478  -2.674  1.00  0.00    -0.504 OA
ATOM     32  H   UNL     1       2.475   2.024  -3.439  1.00  0.00    +0.293 HD
ENDBRANCH   7  31
BRANCH  14  33
ATOM     33  O   UNL     1       3.658  -2.438   2.337  1.00  0.00    -0.377 OA
ATOM     34  H   UNL     1       4.227  -2.633   3.127  1.00  0.00    +0.212 HD
ENDBRANCH  14  33
BRANCH  17  35
ATOM     35  C   UNL     1       0.307   0.225   2.522  1.00  0.00    +0.257 C 
BRANCH  35  36
ATOM     36  O   UNL     1      -0.960   0.266   1.860  1.00  0.00    -0.462 OA
BRANCH  36  37
ATOM     37  C   UNL     1      -1.537   1.455   1.397  1.00  0.00    +0.331 CG0
ATOM     38  O   UNL     1      -1.593   2.459   2.154  1.00  0.00    -0.250 OA
ATOM     39  G   UNL     1      -2.065   1.518  -0.032  1.00  0.00    +0.000 G0
ENDBRANCH  36  37
ENDBRANCH  35  36
ENDBRANCH  17  35
BRANCH  18  40
ATOM     40  O   UNL     1      -0.496  -2.757  -2.277  1.00  0.00    -0.426 OA
BRANCH  40  41
ATOM     41  C   UNL     1      -1.679  -2.589  -3.020  1.00  0.00    +0.308 C 
ATOM     42  O   UNL     1      -2.751  -2.219  -2.456  1.00  0.00    -0.252 OA
ATOM     43  C   UNL     1      -1.659  -2.800  -4.493  1.00  0.00    +0.139 C 
ENDBRANCH  40  41
ENDBRANCH  18  40
ENDBRANCH   1   2
BRANCH   1  44
ATOM     44  C   UNL     1      -1.294   0.467  -0.883  1.00  0.00    +0.109 C 
BRANCH  44  45
ATOM     45  C   UNL     1      -2.065   1.518  -0.032  1.00  0.00    +0.152 CG0
ATOM     46  C   UNL     1      -3.550   1.179  -0.089  1.00  0.00    -0.009 A 
ATOM     47  N   UNL     1      -1.864   2.901  -0.532  1.00  0.00    -0.297 NA
ATOM     48  C   UNL     1      -4.105   0.212   0.774  1.00  0.00    +0.057 A 
ATOM     49  C   UNL     1      -4.354   1.744  -1.100  1.00  0.00    -0.037 A 
ATOM     50  C   UNL     1      -2.340   3.106  -1.906  1.00  0.00    +0.087 C 
ATOM     51  C   UNL     1      -5.459  -0.150   0.677  1.00  0.00    +0.160 A 
ATOM     52  C   UNL     1      -5.691   1.354  -1.218  1.00  0.00    +0.054 A 
ATOM     53  C   UNL     1      -3.841   2.824  -2.028  1.00  0.00    +0.051 C 
ATOM     54  C   UNL     1      -6.247   0.422  -0.335  1.00  0.00    +0.157 A 
ATOM     55  H   UNL     1      -0.845   3.147  -0.495  1.00  0.00    +0.124 HD
ATOM     56  G   UNL     1      -1.537   1.455   1.397  1.00  0.00    +0.000 G0
BRANCH  51  57
ATOM     57  O   UNL     1      -6.046  -1.079   1.556  1.00  0.00    -0.493 OA
ATOM     58  C   UNL     1      -5.385  -1.659   2.682  1.00  0.00    +0.278 C 
ENDBRANCH  51  57
BRANCH  54  59
ATOM     59  O   UNL     1      -7.599   0.088  -0.479  1.00  0.00    -0.504 OA
ATOM     60  H   UNL     1      -8.073  -0.497   0.193  1.00  0.00    +0.293 HD
ENDBRANCH  54  59
ENDBRANCH  44  45
ENDBRANCH   1  44
TORSDOF 7
