REMARK SMILES CC(=O)Nc1cccc(-n2c(=O)n(C3CC3)c(=O)c3c(Nc4ccc(I)cc4F)n(C)c(=O)c(C)c32)c1
REMARK SMILES IDX 35 1 34 2 36 3 19 4 20 5 30 6 32 7 33 8 31 9 17 10 18 11
REMARK SMILES IDX 13 12 11 13 12 14 10 15 9 16 8 17 37 18 7 19 5 20 6 21 4 22
REMARK SMILES IDX 2 23 3 24 1 26 21 27 22 29 28 30 23 31 27 32 24 33 25 34
REMARK SMILES IDX 29 35 26 36 14 37 15 38 16 39
REMARK H PARENT 4 25 21 28
ROOT
ATOM      1  C   UNL     1       1.552  -1.942  -1.501  1.00  0.00    +0.053 C 
ATOM      2  C   UNL     1       0.258  -1.162  -1.395  1.00  0.00    +0.040 A 
ATOM      3  C   UNL     1       0.124   0.010  -0.583  1.00  0.00    +0.076 A 
ATOM      4  C   UNL     1      -1.186   0.416  -0.229  1.00  0.00    +0.106 A 
ATOM      5  C   UNL     1      -2.306  -0.188  -0.861  1.00  0.00    +0.128 A 
ATOM      6  N   UNL     1      -2.127  -1.170  -1.798  1.00  0.00    -0.297 N 
ATOM      7  C   UNL     1      -0.885  -1.696  -2.022  1.00  0.00    +0.256 A 
ATOM      8  O   UNL     1      -0.760  -2.687  -2.797  1.00  0.00    -0.269 OA
ATOM      9  C   UNL     1      -3.295  -1.730  -2.505  1.00  0.00    +0.155 C 
ATOM     10  C   UNL     1      -1.332   1.418   0.756  1.00  0.00    +0.268 A 
ATOM     11  O   UNL     1      -2.469   1.668   1.250  1.00  0.00    -0.268 OA
ATOM     12  N   UNL     1      -0.242   2.099   1.217  1.00  0.00    -0.256 N 
ATOM     13  C   UNL     1       1.012   1.740   0.816  1.00  0.00    +0.336 A 
ATOM     14  O   UNL     1       2.016   2.353   1.291  1.00  0.00    -0.247 OA
ATOM     15  N   UNL     1       1.201   0.728  -0.092  1.00  0.00    -0.261 N 
ENDROOT
BRANCH  15  16
ATOM     16  C   UNL     1       2.531   0.618  -0.639  1.00  0.00    +0.053 A 
ATOM     17  C   UNL     1       2.855   1.315  -1.810  1.00  0.00    +0.027 A 
ATOM     18  C   UNL     1       3.545  -0.021   0.090  1.00  0.00    +0.053 A 
ATOM     19  C   UNL     1       4.179   1.363  -2.254  1.00  0.00    +0.004 A 
ATOM     20  C   UNL     1       4.868  -0.008  -0.379  1.00  0.00    +0.043 A 
ATOM     21  C   UNL     1       5.186   0.716  -1.533  1.00  0.00    +0.026 A 
BRANCH  20  22
ATOM     22  N   UNL     1       5.900  -0.693   0.343  1.00  0.00    -0.326 N 
ATOM     23  C   UNL     1       5.755  -2.048   0.793  1.00  0.00    +0.221 C 
ATOM     24  O   UNL     1       4.795  -2.759   0.380  1.00  0.00    -0.275 OA
ATOM     25  H   UNL     1       6.819  -0.210   0.491  1.00  0.00    +0.169 HD
ATOM     26  C   UNL     1       6.790  -2.656   1.678  1.00  0.00    +0.114 C 
ENDBRANCH  20  22
ENDBRANCH  15  16
BRANCH   5  27
ATOM     27  N   UNL     1      -3.632   0.309  -0.602  1.00  0.00    -0.338 N 
ATOM     28  H   UNL     1      -3.880   1.241  -1.001  1.00  0.00    +0.168 HD
BRANCH  27  29
ATOM     29  C   UNL     1      -4.647  -0.440   0.099  1.00  0.00    +0.076 A 
ATOM     30  C   UNL     1      -4.328  -1.504   0.970  1.00  0.00    +0.147 A 
ATOM     31  C   UNL     1      -5.993  -0.082  -0.073  1.00  0.00    +0.030 A 
ATOM     32  C   UNL     1      -5.346  -2.189   1.644  1.00  0.00    +0.056 A 
ATOM     33  C   UNL     1      -7.005  -0.769   0.601  1.00  0.00    +0.017 A 
ATOM     34  C   UNL     1      -6.686  -1.824   1.461  1.00  0.00    +0.016 A 
ATOM     35  F   UNL     1      -3.040  -1.864   1.208  1.00  0.00    -0.205 F 
ATOM     36  I   UNL     1      -8.212  -2.845   2.495  1.00  0.00    -0.044 I 
ENDBRANCH  27  29
ENDBRANCH   5  27
BRANCH  12  37
ATOM     37  C   UNL     1      -0.402   3.183   2.211  1.00  0.00    +0.096 C 
ATOM     38  C   UNL     1      -1.380   4.290   1.829  1.00  0.00    +0.028 C 
ATOM     39  C   UNL     1       0.113   4.538   1.722  1.00  0.00    +0.028 C 
ENDBRANCH  12  37
TORSDOF 5
